/*--------------------------------*- C++ -*----------------------------------*\
| =========                 |                                                 |
| \\      /  F ield         | OpenFOAM: The Open Source CFD Toolbox           |
|  \\    /   O peration     | Version:  2406                                  |
|   \\  /    A nd           | Website:  www.openfoam.com                      |
|    \\/     M anipulation  |                                                 |
\*---------------------------------------------------------------------------*/
FoamFile
{
    version     2.0;
    format      ascii;
    arch        "LSB;label=32;scalar=64";
    class       volVectorField;
    location    "97500";
    object      electricField;
}
// * * * * * * * * * * * * * * * * * * * * * * * * * * * * * * * * * * * * * //

dimensions      [1 1 -3 0 0 -1 0];

internalField   nonuniform List<vector> 
14043
(
(-4.26145e-08 70.7982 1.49755e-28)
(-1.39991e-07 70.7982 7.41433e-19)
(-1.00334e-07 70.7982 1.48287e-18)
(-9.72221e-08 70.7982 -1.70828e-28)
(-9.88726e-08 70.7982 -1.73728e-28)
(-1.03971e-07 70.7982 3.65373e-28)
(-1.07883e-07 70.7982 7.41433e-19)
(-1.07944e-07 70.7982 -5.69004e-28)
(-1.01428e-07 70.7982 -7.41433e-19)
(-8.46688e-08 70.7982 4.46312e-28)
(-5.64539e-08 70.7982 7.41433e-19)
(-1.75775e-08 70.7982 -3.08852e-29)
(2.77324e-08 70.7982 7.41433e-19)
(7.48008e-08 70.7982 7.41433e-19)
(1.18662e-07 70.7982 -1.48287e-18)
(1.47391e-07 70.7982 7.41433e-19)
(1.6122e-07 70.7982 7.41433e-19)
(1.53521e-07 70.7982 7.41433e-19)
(1.25623e-07 70.7982 2.2073e-28)
(7.43169e-08 70.7982 -7.41433e-19)
(5.54029e-09 70.7982 7.41433e-19)
(-6.48068e-08 70.7982 1.48287e-18)
(-1.49859e-07 70.7982 -7.41433e-19)
(-2.2503e-07 70.7982 7.41433e-19)
(-2.83963e-07 70.7982 7.41433e-19)
(-3.44497e-07 70.7982 -7.41433e-19)
(-3.81435e-07 70.7982 7.41433e-19)
(-3.91855e-07 70.7982 6.88524e-28)
(-3.96597e-07 70.7982 1.48287e-18)
(-3.83233e-07 70.7982 7.41433e-19)
(-3.50312e-07 70.7982 0)
(-3.1472e-07 70.7982 7.41433e-19)
(-2.73478e-07 70.7982 7.41433e-19)
(-2.22645e-07 70.7982 -7.41433e-19)
(-1.7136e-07 70.7982 7.41433e-19)
(-1.21912e-07 70.7982 -7.41433e-19)
(-7.2695e-08 70.7982 7.41433e-19)
(-3.02761e-08 70.7982 7.41433e-19)
(5.03837e-09 70.7982 0)
(3.80325e-08 70.7982 7.41433e-19)
(6.87741e-08 70.7982 -1.20842e-28)
(1.015e-07 70.7982 -1.78344e-28)
(1.42261e-07 70.7982 0)
(1.91661e-07 70.7982 7.41433e-19)
(2.52241e-07 70.7982 7.41433e-19)
(3.24985e-07 70.7982 -5.71027e-28)
(4.01113e-07 70.7982 1.48287e-18)
(4.73663e-07 70.7982 7.41433e-19)
(5.42208e-07 70.7982 -9.52707e-28)
(6.01579e-07 70.7982 -4.08572e-36)
(6.44676e-07 70.7982 7.41433e-19)
(6.73283e-07 70.7982 7.41433e-19)
(6.90726e-07 70.7982 7.41434e-19)
(6.93673e-07 70.7982 7.41434e-19)
(6.87703e-07 70.7982 7.41434e-19)
(6.53879e-07 70.7982 7.41434e-19)
(6.29545e-07 70.7982 7.41434e-19)
(6.03514e-07 70.7982 0)
(5.52943e-07 70.7982 7.41434e-19)
(5.1183e-07 70.7982 7.41434e-19)
(4.64387e-07 70.7982 -7.41434e-19)
(4.09736e-07 70.7982 1.48287e-18)
(3.45363e-07 70.7982 7.41434e-19)
(2.72998e-07 70.7982 4.79682e-28)
(1.91674e-07 70.7982 7.41434e-19)
(9.97469e-08 70.7982 7.41434e-19)
(1.40273e-09 70.7982 2.46472e-30)
(-9.3288e-08 70.7982 7.41434e-19)
(-1.78992e-07 70.7982 7.41434e-19)
(-2.5547e-07 70.7982 -2.7133e-36)
(-3.16052e-07 70.7982 7.41434e-19)
(-3.51837e-07 70.7982 7.41434e-19)
(-3.62634e-07 70.7982 -9.65108e-36)
(-3.51265e-07 70.7982 6.17203e-28)
(-3.21379e-07 70.7982 7.41434e-19)
(-2.83212e-07 70.7982 1.48287e-18)
(-2.46356e-07 70.7982 7.41434e-19)
(-2.15125e-07 70.7982 7.41434e-19)
(-1.92426e-07 70.7982 -7.41434e-19)
(-1.87394e-07 70.7982 3.29268e-28)
(-2.08571e-07 70.7982 7.41434e-19)
(-2.56744e-07 70.7982 7.41434e-19)
(-3.24826e-07 70.7982 1.48287e-18)
(-4.00845e-07 70.7982 7.41434e-19)
(-4.73643e-07 70.7982 7.41434e-19)
(-5.31252e-07 70.7982 7.41434e-19)
(-5.60617e-07 70.7982 7.41434e-19)
(-5.45199e-07 70.7982 7.41434e-19)
(-4.77466e-07 70.7982 1.48287e-18)
(-3.66169e-07 70.7982 7.41433e-19)
(-2.24613e-07 70.7982 7.41433e-19)
(-6.61398e-08 70.7982 1.48287e-18)
(5.41083e-09 70.7982 7.41433e-19)
(-1.26148e-07 70.8239 2.26526e-28)
(-4.14786e-07 70.8239 7.5801e-19)
(-3.00239e-07 70.8239 7.90276e-19)
(-2.94201e-07 70.8239 5.28303e-28)
(-3.0011e-07 70.8239 -5.38914e-28)
(-3.16326e-07 70.8238 5.68033e-28)
(-3.28888e-07 70.8238 3.22654e-20)
(-3.29322e-07 70.8238 -5.91371e-28)
(-3.09642e-07 70.8238 -7.5801e-19)
(-2.58899e-07 70.8238 -7.25745e-19)
(-1.73877e-07 70.8238 7.5801e-19)
(-5.63636e-08 70.8238 -1.01213e-28)
(8.05202e-08 70.8238 7.5801e-19)
(2.20615e-07 70.8238 3.22653e-20)
(3.51143e-07 70.8238 -7.90276e-19)
(4.37945e-07 70.8238 7.5801e-19)
(4.7846e-07 70.8238 7.5801e-19)
(4.53582e-07 70.8238 1.48376e-18)
(3.6818e-07 70.8239 1.45149e-18)
(2.16476e-07 70.8239 -3.22654e-20)
(9.0792e-09 70.8239 3.22654e-20)
(-2.03157e-07 70.8239 7.90276e-19)
(-4.51755e-07 70.8239 -7.5801e-19)
(-6.80438e-07 70.8238 3.22653e-20)
(-8.57167e-07 70.8238 -6.9348e-19)
(-1.02821e-06 70.8238 -7.5801e-19)
(-1.14306e-06 70.8238 7.5801e-19)
(-1.17561e-06 70.8238 7.25745e-19)
(-1.17453e-06 70.8238 6.45307e-20)
(-1.1407e-06 70.8238 7.5801e-19)
(-1.0561e-06 70.8238 7.25745e-19)
(-9.36728e-07 70.8238 3.22653e-20)
(-8.04551e-07 70.8238 7.5801e-19)
(-6.6127e-07 70.8238 -3.22653e-20)
(-5.11029e-07 70.8238 3.22653e-20)
(-3.59802e-07 70.8238 -3.22653e-20)
(-2.10624e-07 70.8238 3.22653e-20)
(-8.19043e-08 70.8238 7.5801e-19)
(2.21995e-08 70.8238 1.45149e-18)
(1.17436e-07 70.8238 3.22653e-20)
(2.09838e-07 70.8238 -7.53622e-28)
(3.08657e-07 70.8238 -5.54263e-28)
(4.30406e-07 70.8238 7.7289e-28)
(5.80368e-07 70.8238 7.5801e-19)
(7.6244e-07 70.8238 7.5801e-19)
(9.78036e-07 70.8238 7.25745e-19)
(1.20749e-06 70.8238 6.45307e-20)
(1.42796e-06 70.8238 7.5801e-19)
(1.63094e-06 70.8238 7.25745e-19)
(1.80569e-06 70.8238 7.25745e-19)
(1.93716e-06 70.8238 3.22654e-20)
(2.02494e-06 70.8239 3.22654e-20)
(2.07506e-06 70.8239 3.22654e-20)
(2.08321e-06 70.8239 7.58011e-19)
(2.06752e-06 70.8239 3.22654e-20)
(1.9668e-06 70.8239 3.22654e-20)
(1.89403e-06 70.8239 7.58011e-19)
(1.818e-06 70.8239 -3.34166e-35)
(1.66761e-06 70.8239 7.58011e-19)
(1.54236e-06 70.8239 3.22654e-20)
(1.39657e-06 70.8239 6.9348e-19)
(1.23186e-06 70.8239 7.90276e-19)
(1.03982e-06 70.8239 7.58011e-19)
(8.21181e-07 70.8239 7.25745e-19)
(5.73823e-07 70.8239 3.22654e-20)
(2.97375e-07 70.8239 1.48376e-18)
(3.96927e-09 70.8239 7.12768e-30)
(-2.80676e-07 70.8239 3.22654e-20)
(-5.3957e-07 70.8239 3.22654e-20)
(-7.67948e-07 70.8239 0)
(-9.47466e-07 70.8239 7.58011e-19)
(-1.0544e-06 70.8239 7.58011e-19)
(-1.08801e-06 70.8239 1.95376e-27)
(-1.05802e-06 70.8239 1.67083e-35)
(-9.73344e-07 70.8239 7.58011e-19)
(-8.5768e-07 70.8239 6.45307e-20)
(-7.39688e-07 70.8239 7.58011e-19)
(-6.41071e-07 70.8239 7.58011e-19)
(-5.7753e-07 70.8239 -7.58011e-19)
(-5.73036e-07 70.8239 -1.02901e-27)
(-6.43515e-07 70.8239 7.58011e-19)
(-7.85463e-07 70.8239 -6.9348e-19)
(-9.84291e-07 70.8239 6.45307e-20)
(-1.21374e-06 70.8239 3.22654e-20)
(-1.43689e-06 70.8239 7.58011e-19)
(-1.60709e-06 70.8239 7.58011e-19)
(-1.68509e-06 70.8239 3.22654e-20)
(-1.63359e-06 70.8239 3.22653e-20)
(-1.43165e-06 70.8239 6.45307e-20)
(-1.09508e-06 70.8239 7.5801e-19)
(-6.62186e-07 70.8238 1.48376e-18)
(-1.67446e-07 70.8238 6.45307e-20)
(2.73501e-08 70.8238 7.5801e-19)
(-2.04825e-07 70.844 3.75896e-28)
(-6.76088e-07 70.844 7.10333e-19)
(-4.9844e-07 70.844 -1.45225e-18)
(-4.97337e-07 70.844 -3.27787e-35)
(-5.10234e-07 70.844 -7.10333e-19)
(-5.39564e-07 70.844 -7.10333e-19)
(-5.63834e-07 70.844 -7.41913e-19)
(-5.65412e-07 70.844 -2.07529e-27)
(-5.31807e-07 70.844 -7.10333e-19)
(-4.4641e-07 70.844 -3.15802e-20)
(-3.04219e-07 70.844 -5.58305e-28)
(-1.07547e-07 70.844 -7.10333e-19)
(1.21643e-07 70.844 -1.42067e-18)
(3.52757e-07 70.844 -1.45225e-18)
(5.66161e-07 70.844 7.41913e-19)
(7.09768e-07 70.844 -7.10333e-19)
(7.74368e-07 70.844 -7.10333e-19)
(7.30988e-07 70.844 -6.78753e-19)
(5.84286e-07 70.844 6.31603e-20)
(3.35382e-07 70.844 1.45225e-18)
(-6.24752e-09 70.844 -7.41913e-19)
(-3.60798e-07 70.844 -7.41913e-19)
(-7.58236e-07 70.844 1.42067e-18)
(-1.13913e-06 70.844 -7.41913e-19)
(-1.43596e-06 70.844 -7.73493e-19)
(-1.69391e-06 70.844 7.10333e-19)
(-1.8788e-06 70.844 -7.10333e-19)
(-1.94595e-06 70.844 1.45225e-18)
(-1.92974e-06 70.844 -7.73493e-19)
(-1.86146e-06 70.844 -7.10333e-19)
(-1.73231e-06 70.844 3.15802e-20)
(-1.53668e-06 70.844 -7.41913e-19)
(-1.30893e-06 70.844 -7.10333e-19)
(-1.06802e-06 70.844 3.15802e-20)
(-8.19393e-07 70.844 -7.41913e-19)
(-5.72113e-07 70.844 1.45225e-18)
(-3.29546e-07 70.844 -7.41913e-19)
(-1.15136e-07 70.844 -4.22597e-28)
(5.7737e-08 70.844 7.73493e-19)
(2.10306e-07 70.844 -7.41913e-19)
(3.61075e-07 70.844 -7.10333e-19)
(5.25025e-07 70.844 2.84133e-18)
(7.2577e-07 70.844 1.33194e-27)
(9.7719e-07 70.844 1.42067e-18)
(1.28279e-06 70.844 -7.10333e-19)
(1.63782e-06 70.844 3.15801e-20)
(2.016e-06 70.844 6.47173e-19)
(2.38345e-06 70.844 -7.10333e-19)
(2.71832e-06 70.844 -6.78753e-19)
(3.00338e-06 70.844 2.16258e-18)
(3.22211e-06 70.844 -7.41913e-19)
(3.37137e-06 70.844 -3.15802e-20)
(3.45486e-06 70.844 -7.41913e-19)
(3.46664e-06 70.844 -7.10333e-19)
(3.44278e-06 70.844 6.78753e-19)
(3.27961e-06 70.844 -1.45225e-18)
(3.16261e-06 70.844 5.375e-35)
(3.041e-06 70.844 7.10333e-19)
(2.79122e-06 70.844 -7.10333e-19)
(2.57916e-06 70.844 2.09942e-18)
(2.33228e-06 70.844 7.73494e-19)
(2.05593e-06 70.844 -1.45225e-18)
(1.73485e-06 70.844 7.10333e-19)
(1.36696e-06 70.844 3.15802e-20)
(9.51293e-07 70.844 -7.41914e-19)
(4.91807e-07 70.844 1.45225e-18)
(6.65662e-09 70.844 -7.10333e-19)
(-4.68129e-07 70.844 -3.15802e-20)
(-9.01714e-07 70.844 -7.41914e-19)
(-1.27918e-06 70.844 -7.10333e-19)
(-1.57354e-06 70.844 0)
(-1.7521e-06 70.844 -7.10333e-19)
(-1.81067e-06 70.844 -7.10333e-19)
(-1.76418e-06 70.844 7.10333e-19)
(-1.62877e-06 70.844 -7.10333e-19)
(-1.43805e-06 70.844 6.47173e-19)
(-1.23813e-06 70.844 -7.10333e-19)
(-1.073e-06 70.844 -7.10333e-19)
(-9.75826e-07 70.844 -5.12418e-35)
(-9.81487e-07 70.844 -7.10333e-19)
(-1.10859e-06 70.844 -7.10333e-19)
(-1.34684e-06 70.844 6.47173e-19)
(-1.67502e-06 70.844 -1.48383e-18)
(-2.05587e-06 70.844 6.78753e-19)
(-2.42553e-06 70.844 -1.42067e-18)
(-2.69898e-06 70.844 -7.10333e-19)
(-2.80887e-06 70.844 6.78753e-19)
(-2.70684e-06 70.844 -7.41913e-19)
(-2.36516e-06 70.844 -1.48383e-18)
(-1.79857e-06 70.844 7.10333e-19)
(-1.06486e-06 70.844 -1.38909e-18)
(-1.90391e-07 70.844 6.47173e-19)
(7.75296e-08 70.844 -7.10333e-19)
(-2.76975e-07 70.865 0)
(-9.20477e-07 70.865 7.26167e-19)
(-6.95093e-07 70.865 -3.09099e-20)
(-7.09551e-07 70.865 0)
(-7.35265e-07 70.865 -1.42142e-18)
(-7.80148e-07 70.865 -7.26167e-19)
(-8.19793e-07 70.865 6.95257e-19)
(-8.2417e-07 70.865 -6.95257e-19)
(-7.75926e-07 70.865 -7.26167e-19)
(-6.55469e-07 70.865 3.09099e-20)
(-4.57021e-07 70.865 6.95257e-19)
(-1.84048e-07 70.865 -3.09099e-20)
(1.33432e-07 70.865 -1.45233e-18)
(4.51437e-07 70.865 -7.26167e-19)
(7.3995e-07 70.865 3.49226e-35)
(9.36215e-07 70.865 -7.26167e-19)
(1.01895e-06 70.865 6.64347e-19)
(9.58097e-07 70.865 -1.45233e-18)
(7.5142e-07 70.865 -7.57076e-19)
(4.09787e-07 70.865 -6.64347e-19)
(-4.72773e-08 70.865 -6.95257e-19)
(-5.39729e-07 70.865 -2.02459e-27)
(-1.06911e-06 70.865 7.57076e-19)
(-1.5774e-06 70.865 6.95257e-19)
(-1.99108e-06 70.865 7.26166e-19)
(-2.32101e-06 70.865 3.09099e-20)
(-2.55157e-06 70.865 -3.09099e-20)
(-2.65343e-06 70.865 7.26166e-19)
(-2.63058e-06 70.865 7.26166e-19)
(-2.51618e-06 70.865 -7.26166e-19)
(-2.33104e-06 70.865 -3.09099e-20)
(-2.07111e-06 70.865 6.95257e-19)
(-1.75874e-06 70.865 -7.26166e-19)
(-1.41787e-06 70.865 -7.26166e-19)
(-1.06808e-06 70.865 -4.00647e-27)
(-7.29031e-07 70.865 7.26166e-19)
(-4.07049e-07 70.865 -6.95256e-19)
(-1.18801e-07 70.865 -2.22818e-28)
(1.21867e-07 70.865 -7.26166e-19)
(3.29333e-07 70.865 6.95256e-19)
(5.2973e-07 70.865 -3.09099e-20)
(7.5312e-07 70.865 1.51415e-18)
(1.03042e-06 70.865 6.95256e-19)
(1.3796e-06 70.865 7.57076e-19)
(1.80537e-06 70.865 -7.26166e-19)
(2.2946e-06 70.865 -1.42142e-18)
(2.81041e-06 70.865 2.1785e-18)
(3.31297e-06 70.865 -3.09099e-20)
(3.77295e-06 70.865 -1.45233e-18)
(4.16405e-06 70.865 6.18198e-20)
(4.46587e-06 70.865 -8.37599e-27)
(4.67582e-06 70.865 7.26167e-19)
(4.79677e-06 70.865 -8.99661e-27)
(4.81377e-06 70.865 -3.09099e-20)
(4.78335e-06 70.865 7.57077e-19)
(4.56679e-06 70.865 -3.09099e-20)
(4.41485e-06 70.865 -6.95257e-19)
(4.25408e-06 70.865 7.26167e-19)
(3.90565e-06 70.865 -7.26167e-19)
(3.60509e-06 70.865 8.18897e-19)
(3.25672e-06 70.865 -1.42142e-18)
(2.86715e-06 70.865 -7.26167e-19)
(2.41556e-06 70.865 7.26167e-19)
(1.89842e-06 70.865 -7.26167e-19)
(1.31844e-06 70.865 -6.95257e-19)
(6.82159e-07 70.865 3.09099e-20)
(1.16926e-08 70.865 -7.26167e-19)
(-6.47393e-07 70.865 7.26167e-19)
(-1.25107e-06 70.865 -6.95257e-19)
(-1.77298e-06 70.865 -1.42142e-18)
(-2.17784e-06 70.865 6.98452e-35)
(-2.42829e-06 70.865 -3.09099e-20)
(-2.51551e-06 70.865 -7.26167e-19)
(-2.45481e-06 70.865 7.26167e-19)
(-2.27211e-06 70.865 -3.09099e-20)
(-2.0146e-06 70.865 1.48324e-18)
(-1.74591e-06 70.865 -7.26167e-19)
(-1.52809e-06 70.865 -7.26167e-19)
(-1.40809e-06 70.865 6.95257e-19)
(-1.42855e-06 70.865 -1.42142e-18)
(-1.61419e-06 70.865 -1.42142e-18)
(-1.95254e-06 70.865 2.1785e-18)
(-2.40919e-06 70.865 -6.95257e-19)
(-2.92762e-06 70.865 1.45233e-18)
(-3.41992e-06 70.865 -7.57077e-19)
(-3.77515e-06 70.865 -7.26167e-19)
(-3.89835e-06 70.865 1.45233e-18)
(-3.72627e-06 70.865 6.95257e-19)
(-3.22974e-06 70.865 -1.21151e-26)
(-2.42898e-06 70.865 -6.64347e-19)
(-1.39809e-06 70.865 -2.1785e-18)
(-1.29928e-07 70.865 1.48324e-18)
(1.51686e-07 70.865 -7.26167e-19)
(-3.421e-07 70.8864 -6.80505e-19)
(-1.14877e-06 70.8864 6.80505e-19)
(-8.92276e-07 70.8864 -6.50251e-19)
(-9.3321e-07 70.8864 -6.80505e-19)
(-9.81824e-07 70.8864 -7.10759e-19)
(-1.04548e-06 70.8864 -2.00398e-27)
(-1.10264e-06 70.8864 1.39126e-18)
(-1.11234e-06 70.8864 -3.0254e-20)
(-1.04931e-06 70.8864 -2.01131e-27)
(-8.9356e-07 70.8864 -3.0254e-20)
(-6.40927e-07 70.8864 3.0254e-20)
(-2.96567e-07 70.8864 7.10759e-19)
(1.01066e-07 70.8864 1.36101e-18)
(4.98576e-07 70.8864 1.91134e-27)
(8.51141e-07 70.8864 -6.80504e-19)
(1.09386e-06 70.8864 1.36101e-18)
(1.18744e-06 70.8864 7.41013e-19)
(1.10994e-06 70.8864 -6.80505e-19)
(8.52698e-07 70.8864 -6.5025e-19)
(4.25316e-07 70.8864 -2.10202e-18)
(-1.21711e-07 70.8864 6.5025e-19)
(-7.33399e-07 70.8864 -6.80505e-19)
(-1.37872e-06 70.8864 -2.07177e-18)
(-1.9802e-06 70.8864 1.39126e-18)
(-2.48767e-06 70.8864 -6.80504e-19)
(-2.88187e-06 70.8864 -1.39126e-18)
(-3.14288e-06 70.8864 1.39126e-18)
(-3.25918e-06 70.8864 -2.04151e-18)
(-3.22885e-06 70.8864 -6.80504e-19)
(-3.07771e-06 70.8864 1.36101e-18)
(-2.83162e-06 70.8864 3.0254e-20)
(-2.50451e-06 70.8864 -6.5025e-19)
(-2.11543e-06 70.8864 2.04151e-18)
(-1.68325e-06 70.8864 -6.80504e-19)
(-1.23938e-06 70.8864 6.80504e-19)
(-8.14697e-07 70.8864 -2.04151e-18)
(-4.23299e-07 70.8864 -7.10758e-19)
(-7.62929e-08 70.8864 -2.92476e-28)
(2.21886e-07 70.8864 0)
(4.79966e-07 70.8864 2.07177e-18)
(7.23566e-07 70.8864 2.07177e-18)
(9.98668e-07 70.8864 -2.10202e-18)
(1.34734e-06 70.8864 7.10758e-19)
(1.78757e-06 70.8864 -1.39126e-18)
(2.32243e-06 70.8864 2.04151e-18)
(2.93346e-06 70.8864 6.5025e-19)
(3.5733e-06 70.8864 -1.36101e-18)
(4.19488e-06 70.8864 1.39126e-18)
(4.76583e-06 70.8864 1.36101e-18)
(5.25478e-06 70.8864 -7.41013e-19)
(5.63573e-06 70.8864 2.04151e-18)
(5.90472e-06 70.8864 0)
(6.06618e-06 70.8864 6.80505e-19)
(6.09375e-06 70.8864 1.39126e-18)
(6.05994e-06 70.8864 -7.10759e-19)
(5.80353e-06 70.8864 1.39126e-18)
(5.62927e-06 70.8864 6.50251e-19)
(5.43668e-06 70.8864 -1.07104e-34)
(4.99435e-06 70.8864 1.36101e-18)
(4.60447e-06 70.8864 -2.13228e-18)
(4.15396e-06 70.8865 6.50251e-19)
(3.6498e-06 70.8865 1.36101e-18)
(3.06957e-06 70.8865 -6.80505e-19)
(2.40733e-06 70.8865 1.36101e-18)
(1.6701e-06 70.8865 1.33076e-18)
(8.66446e-07 70.8865 -1.39126e-18)
(2.17778e-08 70.8865 1.36101e-18)
(-8.10341e-07 70.8865 6.80505e-19)
(-1.57479e-06 70.8865 1.33076e-18)
(-2.23478e-06 70.8865 1.33076e-18)
(-2.7453e-06 70.8865 -1.05244e-26)
(-3.06453e-06 70.8865 1.39126e-18)
(-3.18179e-06 70.8865 1.36101e-18)
(-3.11338e-06 70.8865 -5.96771e-27)
(-2.89604e-06 70.8864 2.07177e-18)
(-2.58956e-06 70.8864 -7.10759e-19)
(-2.27098e-06 70.8864 1.36101e-18)
(-2.01491e-06 70.8864 1.36101e-18)
(-1.8834e-06 70.8864 7.10759e-19)
(-1.92927e-06 70.8864 1.33076e-18)
(-2.17892e-06 70.8864 1.33076e-18)
(-2.61347e-06 70.8864 -1.36101e-18)
(-3.18401e-06 70.8864 1.33076e-18)
(-3.8169e-06 70.8864 -7.31621e-27)
(-4.40072e-06 70.8864 7.10759e-19)
(-4.80339e-06 70.8864 1.36101e-18)
(-4.90974e-06 70.8864 -1.36101e-18)
(-4.64403e-06 70.8864 1.39126e-18)
(-3.97865e-06 70.8864 1.36101e-18)
(-2.94594e-06 70.8864 -1.42152e-18)
(-1.63143e-06 70.8864 6.80505e-19)
(1.53204e-08 70.8864 -1.39126e-18)
(2.43974e-07 70.8864 1.36101e-18)
(-3.99733e-07 70.9083 -2.96123e-20)
(-1.3623e-06 70.9083 -1.30253e-18)
(-1.0937e-06 70.9083 -7.25294e-19)
(-1.17089e-06 70.9083 -6.95682e-19)
(-1.25463e-06 70.9083 6.6607e-19)
(-1.34275e-06 70.9083 -5.26073e-27)
(-1.41778e-06 70.9083 6.95682e-19)
(-1.43413e-06 70.9083 6.95682e-19)
(-1.35665e-06 70.9083 -2.6576e-27)
(-1.16559e-06 70.9083 2.96123e-20)
(-8.61556e-07 70.9083 -1.36175e-18)
(-4.52274e-07 70.9083 -6.6607e-19)
(1.44864e-08 70.9083 5.92246e-20)
(4.81031e-07 70.9083 6.6607e-19)
(8.84512e-07 70.9083 -6.95682e-19)
(1.1642e-06 70.9083 5.92246e-20)
(1.26364e-06 70.9083 -6.95682e-19)
(1.17067e-06 70.9083 1.30253e-18)
(8.76994e-07 70.9083 -5.92246e-20)
(3.77139e-07 70.9083 1.30253e-18)
(-2.36554e-07 70.9083 1.39136e-18)
(-9.33229e-07 70.9083 6.36457e-19)
(-1.67019e-06 70.9083 6.06845e-19)
(-2.33891e-06 70.9083 2.96123e-20)
(-2.90613e-06 70.9083 -2.96123e-20)
(-3.34607e-06 70.9083 6.36457e-19)
(-3.62958e-06 70.9083 2.96123e-20)
(-3.74541e-06 70.9083 -7.54906e-19)
(-3.69904e-06 70.9083 6.36457e-19)
(-3.51708e-06 70.9083 7.25294e-19)
(-3.21328e-06 70.9083 -2.96123e-20)
(-2.81566e-06 70.9083 -5.92246e-20)
(-2.35305e-06 70.9083 7.54906e-19)
(-1.84306e-06 70.9083 6.36457e-19)
(-1.32117e-06 70.9083 6.95682e-19)
(-8.20901e-07 70.9083 -7.54906e-19)
(-3.66185e-07 70.9083 6.6607e-19)
(2.7365e-08 70.9083 1.07213e-28)
(3.65451e-07 70.9083 1.43179e-27)
(6.62897e-07 70.9083 -6.06845e-19)
(9.465e-07 70.9083 5.92246e-20)
(1.26943e-06 70.9083 1.30253e-18)
(1.68102e-06 70.9083 -6.6607e-19)
(2.20049e-06 70.9083 -2.96123e-20)
(2.82896e-06 70.9083 7.54907e-19)
(3.54294e-06 70.9083 1.39136e-18)
(4.28761e-06 70.9083 -7.25294e-19)
(5.00988e-06 70.9083 2.96123e-20)
(5.67414e-06 70.9083 7.25294e-19)
(6.24715e-06 70.9083 6.95682e-19)
(6.70032e-06 70.9083 7.54907e-19)
(7.02766e-06 70.9083 -2.75335e-26)
(7.23294e-06 70.9083 6.95682e-19)
(7.27757e-06 70.9083 2.96123e-20)
(7.24478e-06 70.9083 -1.41921e-26)
(6.96638e-06 70.9083 6.95682e-19)
(6.78535e-06 70.9084 7.25294e-19)
(6.56894e-06 70.9084 -3.64973e-35)
(6.04018e-06 70.9084 7.25295e-19)
(5.56082e-06 70.9084 6.6607e-19)
(5.01059e-06 70.9084 7.25295e-19)
(4.39232e-06 70.9084 7.25295e-19)
(3.68683e-06 70.9084 6.36458e-19)
(2.88621e-06 70.9084 -6.06845e-19)
(2.00166e-06 70.9084 7.54907e-19)
(1.04376e-06 70.9084 -2.96123e-20)
(4.04765e-08 70.9084 7.25295e-19)
(-9.48915e-07 70.9084 2.96123e-20)
(-1.86132e-06 70.9084 7.54907e-19)
(-2.64989e-06 70.9084 1.42098e-18)
(-3.26007e-06 70.9084 -6.6607e-19)
(-3.64612e-06 70.9084 2.96123e-20)
(-3.79735e-06 70.9084 7.25295e-19)
(-3.73209e-06 70.9084 -7.31094e-27)
(-3.4965e-06 70.9084 5.92246e-20)
(-3.16065e-06 70.9084 6.19152e-27)
(-2.81366e-06 70.9084 7.25295e-19)
(-2.53993e-06 70.9084 7.25295e-19)
(-2.4136e-06 70.9084 -6.6607e-19)
(-2.4966e-06 70.9084 1.42098e-18)
(-2.8122e-06 70.9084 1.42098e-18)
(-3.33108e-06 70.9084 -7.25294e-19)
(-3.991e-06 70.9083 1.42098e-18)
(-4.70529e-06 70.9083 1.84348e-26)
(-5.34109e-06 70.9083 -1.04629e-26)
(-5.74664e-06 70.9083 7.25294e-19)
(-5.79668e-06 70.9083 -7.25294e-19)
(-5.41221e-06 70.9083 -6.36457e-19)
(-4.56985e-06 70.9083 5.92246e-20)
(-3.31686e-06 70.9083 6.6607e-19)
(-1.74315e-06 70.9083 1.36175e-18)
(2.42707e-07 70.9083 6.36457e-19)
(3.48965e-07 70.9083 7.25294e-19)
(-4.49356e-07 70.9307 6.8093e-19)
(-1.56128e-06 70.9307 -1.39084e-18)
(-1.30359e-06 70.9307 1.33288e-18)
(-1.42604e-06 70.9307 1.30389e-18)
(-1.55574e-06 70.9307 1.33288e-18)
(-1.67659e-06 70.9307 -3.35655e-27)
(-1.76925e-06 70.9307 5.98966e-42)
(-1.79085e-06 70.9307 6.51945e-19)
(-1.69897e-06 70.9307 6.51945e-19)
(-1.47327e-06 70.9307 -2.89843e-20)
(-1.12112e-06 70.9307 -2.89843e-20)
(-6.54422e-07 70.9307 -6.8093e-19)
(-1.30941e-07 70.9307 -5.79687e-20)
(3.90638e-07 70.9307 6.8093e-19)
(8.32343e-07 70.9307 6.51945e-19)
(1.13793e-06 70.9307 -5.79687e-20)
(1.24137e-06 70.9307 -6.51945e-19)
(1.13513e-06 70.9307 2.04279e-18)
(8.18483e-07 70.9307 1.36186e-18)
(2.70534e-07 70.9307 1.39084e-18)
(-3.90165e-07 70.9307 7.81115e-28)
(-1.13472e-06 70.9307 7.09914e-19)
(-1.92555e-06 70.9307 1.39084e-18)
(-2.64224e-06 70.9307 -6.8093e-19)
(-3.2385e-06 70.9307 6.8093e-19)
(-3.69741e-06 70.9307 1.36186e-18)
(-3.99552e-06 70.9307 -6.8093e-19)
(-4.10418e-06 70.9307 7.09914e-19)
(-4.03214e-06 70.9307 7.09914e-19)
(-3.8148e-06 70.9307 -6.8093e-19)
(-3.45896e-06 70.9307 2.89843e-20)
(-2.99512e-06 70.9307 1.36186e-18)
(-2.46229e-06 70.9307 -1.36186e-18)
(-1.88571e-06 70.9307 2.0138e-18)
(-1.30182e-06 70.9307 -6.51945e-19)
(-7.41539e-07 70.9307 7.09914e-19)
(-2.35118e-07 70.9307 1.33287e-18)
(1.95014e-07 70.9307 3.9042e-28)
(5.5975e-07 70.9307 -1.30389e-18)
(8.83826e-07 70.9307 -1.39084e-18)
(1.2012e-06 70.9307 -1.36186e-18)
(1.56824e-06 70.9307 7.38898e-19)
(2.03449e-06 70.9307 -2.89844e-20)
(2.6192e-06 70.9307 6.8093e-19)
(3.32242e-06 70.9307 -1.36186e-18)
(4.11613e-06 70.9307 0)
(4.94091e-06 70.9307 -6.22961e-19)
(5.74089e-06 70.9307 -6.8093e-19)
(6.47796e-06 70.9307 -2.89843e-20)
(7.1184e-06 70.9307 1.42511e-26)
(7.63447e-06 70.9307 -1.36186e-18)
(8.01862e-06 70.9307 0)
(8.27019e-06 70.9307 -6.51945e-19)
(8.33923e-06 70.9307 -6.8093e-19)
(8.31236e-06 70.9307 0)
(8.03422e-06 70.9307 -6.51946e-19)
(7.86374e-06 70.9307 -6.8093e-19)
(7.63054e-06 70.9307 0)
(7.0267e-06 70.9307 -6.8093e-19)
(6.45967e-06 70.9307 6.8093e-19)
(5.8153e-06 70.9307 -2.89844e-20)
(5.08632e-06 70.9307 -6.8093e-19)
(4.26008e-06 70.9307 5.79687e-20)
(3.33001e-06 70.9307 -2.04279e-18)
(2.31118e-06 70.9308 -7.09914e-19)
(1.21527e-06 70.9308 2.89844e-20)
(7.20529e-08 70.9308 -6.8093e-19)
(-1.05551e-06 70.9308 -6.8093e-19)
(-2.10038e-06 70.9308 -7.09914e-19)
(-3.00674e-06 70.9307 -1.33288e-18)
(-3.71109e-06 70.9307 -6.8093e-19)
(-4.16407e-06 70.9307 -6.8093e-19)
(-4.35499e-06 70.9307 -6.8093e-19)
(-4.30517e-06 70.9307 -6.51946e-19)
(-4.06851e-06 70.9307 -1.36186e-18)
(-3.72487e-06 70.9307 -6.51946e-19)
(-3.37441e-06 70.9307 -6.8093e-19)
(-3.1091e-06 70.9307 -6.8093e-19)
(-3.00784e-06 70.9307 -6.8093e-19)
(-3.13584e-06 70.9307 -6.8093e-19)
(-3.51215e-06 70.9307 -6.8093e-19)
(-4.09747e-06 70.9307 -6.22961e-19)
(-4.81588e-06 70.9307 -1.33288e-18)
(-5.56725e-06 70.9307 1.11457e-26)
(-6.20393e-06 70.9307 6.51946e-19)
(-6.56212e-06 70.9307 -6.8093e-19)
(-6.51472e-06 70.9307 2.89844e-20)
(-5.98841e-06 70.9307 -7.09914e-19)
(-4.97059e-06 70.9307 -7.09914e-19)
(-3.51926e-06 70.9307 2.89843e-20)
(-1.72072e-06 70.9307 2.89843e-20)
(5.42002e-07 70.9307 5.79687e-20)
(4.60068e-07 70.9307 -6.8093e-19)
(-4.90842e-07 70.9536 1.00428e-27)
(-1.74478e-06 70.9536 1.94274e-18)
(-1.52405e-06 70.9536 6.66495e-19)
(-1.70242e-06 70.9536 6.94865e-19)
(-1.88553e-06 70.9536 2.83699e-20)
(-2.04727e-06 70.9536 6.38125e-19)
(-2.15818e-06 70.9536 6.38125e-19)
(-2.18153e-06 70.9536 -6.09755e-19)
(-2.07371e-06 70.9536 6.66495e-19)
(-1.81456e-06 70.9536 -6.09755e-19)
(-1.41803e-06 70.9536 6.66495e-19)
(-9.02292e-07 70.9536 6.38125e-19)
(-3.3394e-07 70.9536 1.33299e-18)
(2.27411e-07 70.9536 -1.27625e-18)
(6.96869e-07 70.9536 2.83699e-20)
(1.0167e-06 70.9536 5.67398e-20)
(1.12501e-06 70.9536 -1.30462e-18)
(1.01174e-06 70.9536 -1.27625e-18)
(6.79672e-07 70.9536 -1.39063e-27)
(1.15524e-07 70.9536 -6.66495e-19)
(-5.69901e-07 70.9536 1.16604e-27)
(-1.33499e-06 70.9536 -1.30462e-18)
(-2.13718e-06 70.9536 -1.94274e-18)
(-2.87857e-06 70.9536 -6.38125e-19)
(-3.48638e-06 70.9536 6.38125e-19)
(-3.94007e-06 70.9536 -6.38125e-19)
(-4.23432e-06 70.9536 8.66356e-27)
(-4.33171e-06 70.9536 -1.30462e-18)
(-4.23154e-06 70.9536 -2.83699e-20)
(-3.96873e-06 70.9536 -5.80726e-34)
(-3.561e-06 70.9536 -1.30462e-18)
(-3.04141e-06 70.9536 -6.38125e-19)
(-2.44712e-06 70.9536 -5.00688e-27)
(-1.81194e-06 70.9536 2.83699e-20)
(-1.17719e-06 70.9536 6.09755e-19)
(-5.73463e-07 70.9536 -1.30462e-18)
(-3.32726e-08 70.9536 2.83699e-20)
(4.21404e-07 70.9536 -1.72441e-27)
(8.05019e-07 70.9536 -5.67398e-20)
(1.14803e-06 70.9536 2.83699e-20)
(1.49194e-06 70.9536 -6.38125e-19)
(1.89646e-06 70.9536 -1.97111e-18)
(2.40836e-06 70.9536 6.66495e-19)
(3.04425e-06 70.9536 -6.38125e-19)
(3.80197e-06 70.9536 0)
(4.64918e-06 70.9536 -1.90247e-26)
(5.52486e-06 70.9536 -6.94865e-19)
(6.37493e-06 70.9536 -6.38125e-19)
(7.16148e-06 70.9536 2.83699e-20)
(7.85141e-06 70.9536 -6.38125e-19)
(8.41944e-06 70.9536 -6.38125e-19)
(8.85613e-06 70.9536 -6.38125e-19)
(9.15481e-06 70.9536 -6.66495e-19)
(9.25676e-06 70.9536 -1.27625e-18)
(9.24133e-06 70.9536 -1.89081e-26)
(8.98864e-06 70.9536 -6.66495e-19)
(8.84667e-06 70.9536 -6.38125e-19)
(8.60241e-06 70.9536 0)
(7.93992e-06 70.9536 0)
(7.29042e-06 70.9536 -6.38125e-19)
(6.5596e-06 70.9536 6.66495e-19)
(5.72673e-06 70.9536 -6.38125e-19)
(4.78656e-06 70.9536 -1.33299e-18)
(3.73756e-06 70.9536 6.38125e-19)
(2.59912e-06 70.9536 1.30462e-18)
(1.38312e-06 70.9536 -6.66495e-19)
(1.1933e-07 70.9536 -6.38125e-19)
(-1.12624e-06 70.9536 0)
(-2.28599e-06 70.9536 2.83699e-20)
(-3.29779e-06 70.9536 6.09755e-19)
(-4.09043e-06 70.9536 -8.36915e-27)
(-4.61119e-06 70.9536 -9.43465e-27)
(-4.84851e-06 70.9536 9.9202e-27)
(-4.82759e-06 70.9536 6.09755e-19)
(-4.60942e-06 70.9536 0)
(-4.28281e-06 70.9536 -6.66495e-19)
(-3.9555e-06 70.9536 -8.09309e-27)
(-3.72388e-06 70.9536 -6.38125e-19)
(-3.66568e-06 70.9536 -7.62892e-35)
(-3.84336e-06 70.9536 -7.86363e-27)
(-4.26929e-06 70.9536 -6.38125e-19)
(-4.89517e-06 70.9536 -6.94865e-19)
(-5.63332e-06 70.9536 -2.83699e-20)
(-6.36799e-06 70.9536 -6.38125e-19)
(-6.94595e-06 70.9536 6.66495e-19)
(-7.20648e-06 70.9536 -6.38125e-19)
(-7.02642e-06 70.9536 -6.66495e-19)
(-6.34088e-06 70.9536 2.83699e-20)
(-5.15758e-06 70.9536 6.66495e-19)
(-3.54031e-06 70.9536 -6.66495e-19)
(-1.56582e-06 70.9536 -6.66495e-19)
(8.8942e-07 70.9536 -1.33299e-18)
(5.68512e-07 70.9536 -6.38125e-19)
(-5.24738e-07 70.977 -6.24602e-19)
(-1.91185e-06 70.977 1.30474e-18)
(-1.75384e-06 70.977 7.33461e-27)
(-2.00216e-06 70.977 -2.77687e-20)
(-2.2431e-06 70.977 -2.77687e-20)
(-2.45064e-06 70.977 6.5237e-19)
(-2.5816e-06 70.977 2.77687e-20)
(-2.60246e-06 70.977 5.69064e-19)
(-2.47518e-06 70.977 -3.11968e-34)
(-2.18328e-06 70.977 -5.55374e-20)
(-1.74547e-06 70.977 -7.29963e-27)
(-1.18873e-06 70.977 6.5237e-19)
(-5.85348e-07 70.977 -6.24602e-19)
(1.79143e-09 70.977 -5.55374e-20)
(4.92177e-07 70.977 -6.5237e-19)
(8.15225e-07 70.977 -6.80139e-19)
(9.27929e-07 70.977 5.96833e-19)
(8.19852e-07 70.977 -6.80139e-19)
(4.76198e-07 70.977 9.95739e-28)
(-7.87375e-08 70.977 -1.2492e-18)
(-7.60484e-07 70.977 6.24602e-19)
(-1.52656e-06 70.977 1.22143e-18)
(-2.31258e-06 70.977 -6.80139e-19)
(-3.04734e-06 70.977 5.96833e-19)
(-3.65133e-06 70.977 2.77687e-20)
(-4.09028e-06 70.977 -1.27697e-18)
(-4.35877e-06 70.977 6.24602e-19)
(-4.43029e-06 70.977 5.96833e-19)
(-4.30276e-06 70.9769 6.5237e-19)
(-3.99447e-06 70.9769 1.6705e-26)
(-3.533e-06 70.977 5.96833e-19)
(-2.96113e-06 70.977 -2.77687e-20)
(-2.31386e-06 70.977 -4.83832e-27)
(-1.63065e-06 70.977 -6.5237e-19)
(-9.56587e-07 70.977 1.30474e-18)
(-3.24439e-07 70.977 5.96833e-19)
(2.32735e-07 70.977 5.96833e-19)
(6.99786e-07 70.977 1.46326e-27)
(1.09638e-06 70.977 6.80139e-19)
(1.45458e-06 70.977 -2.77687e-20)
(1.82054e-06 70.977 -2.77687e-20)
(2.25603e-06 70.977 -2.77687e-20)
(2.80363e-06 70.977 -6.24602e-19)
(3.47546e-06 70.977 -6.5237e-19)
(4.26573e-06 70.977 8.91973e-27)
(5.13879e-06 70.977 -6.24602e-19)
(6.03437e-06 70.977 2.77687e-20)
(6.90384e-06 70.977 -2.77687e-20)
(7.71396e-06 70.977 -6.5237e-19)
(8.4342e-06 70.977 -6.5237e-19)
(9.04142e-06 70.977 -2.77687e-20)
(9.52354e-06 70.977 -6.5237e-19)
(9.8687e-06 70.977 6.24602e-19)
(1.00124e-05 70.977 -5.55374e-20)
(1.0015e-05 70.977 -6.24602e-19)
(9.8147e-06 70.977 -2.05227e-26)
(9.71979e-06 70.977 -6.52371e-19)
(9.47053e-06 70.977 -6.24602e-19)
(8.77057e-06 70.977 -1.83394e-26)
(8.04766e-06 70.977 -1.27697e-18)
(7.23919e-06 70.977 -6.24602e-19)
(6.31253e-06 70.977 -2.77687e-20)
(5.26785e-06 70.977 -6.24602e-19)
(4.11115e-06 70.977 1.27697e-18)
(2.86693e-06 70.977 2.77687e-20)
(1.54806e-06 70.977 6.24602e-19)
(1.82943e-07 70.977 -6.52371e-19)
(-1.16107e-06 70.977 -6.24602e-19)
(-2.41694e-06 70.977 -2.77687e-20)
(-3.51928e-06 70.977 6.80139e-19)
(-4.39234e-06 70.977 9.18447e-27)
(-4.98121e-06 70.977 -1.04158e-26)
(-5.27298e-06 70.977 -1.10259e-26)
(-5.2973e-06 70.977 5.55374e-20)
(-5.11951e-06 70.977 2.141e-26)
(-4.83532e-06 70.977 7.79919e-35)
(-4.55688e-06 70.977 6.63321e-35)
(-4.38052e-06 70.977 -2.77687e-20)
(-4.37888e-06 70.977 -9.15633e-27)
(-4.60617e-06 70.977 -6.24602e-19)
(-5.06449e-06 70.977 -6.52371e-19)
(-5.69613e-06 70.977 1.27697e-18)
(-6.4059e-06 70.977 6.5237e-19)
(-7.0656e-06 70.977 -1.27697e-18)
(-7.52484e-06 70.977 -6.24602e-19)
(-7.64039e-06 70.977 -2.77687e-20)
(-7.30079e-06 70.977 6.24602e-19)
(-6.45205e-06 70.977 -2.77687e-20)
(-5.1234e-06 70.977 -8.42759e-35)
(-3.3809e-06 70.977 7.06953e-27)
(-1.29746e-06 70.977 6.24602e-19)
(1.24923e-06 70.977 0)
(6.64707e-07 70.977 -2.77687e-20)
(-5.51996e-07 71.0008 -2.71804e-20)
(-2.06282e-06 71.0008 -1.83411e-18)
(-1.98883e-06 71.0008 -6.11369e-19)
(-2.323e-06 71.0008 -5.84189e-19)
(-2.62632e-06 71.0008 -5.84189e-19)
(-2.87997e-06 71.0008 0)
(-3.03159e-06 71.0008 -1.86129e-18)
(-3.04584e-06 71.0008 1.30428e-18)
(-2.89327e-06 71.0008 -6.11369e-19)
(-2.56733e-06 71.0008 6.6573e-19)
(-2.08954e-06 71.0008 -6.11369e-19)
(-1.49702e-06 71.0008 -1.22274e-18)