/*--------------------------------*- C++ -*----------------------------------*\
| =========                 |                                                 |
| \\      /  F ield         | OpenFOAM: The Open Source CFD Toolbox           |
|  \\    /   O peration     | Version:  2406                                  |
|   \\  /    A nd           | Website:  www.openfoam.com                      |
|    \\/     M anipulation  |                                                 |
\*---------------------------------------------------------------------------*/
FoamFile
{
    version     2.0;
    format      ascii;
    arch        "LSB;label=32;scalar=64";
    class       volScalarField;
    location    "97500";
    object      p;
}
// * * * * * * * * * * * * * * * * * * * * * * * * * * * * * * * * * * * * * //

dimensions      [0 2 -2 0 0 0 0];

internalField   nonuniform List<scalar> 
14043
(
-1.17997e-09
-1.17042e-09
-1.16787e-09
-1.16953e-09
-1.17142e-09
-1.17299e-09
-1.1742e-09
-1.1751e-09
-1.17574e-09
-1.17621e-09
-1.17654e-09
-1.17677e-09
-1.17693e-09
-1.17705e-09
-1.17714e-09
-1.1772e-09
-1.17725e-09
-1.17728e-09
-1.17731e-09
-1.17733e-09
-1.17735e-09
-1.17737e-09
-1.17738e-09
-1.17739e-09
-1.1774e-09
-1.17741e-09
-1.17742e-09
-1.17743e-09
-1.17744e-09
-1.17745e-09
-1.17745e-09
-1.17746e-09
-1.17747e-09
-1.17747e-09
-1.17748e-09
-1.17748e-09
-1.17748e-09
-1.17749e-09
-1.17749e-09
-1.17749e-09
-1.17749e-09
-1.1775e-09
-1.1775e-09
-1.1775e-09
-1.1775e-09
-1.1775e-09
-1.1775e-09
-1.1775e-09
-1.1775e-09
-1.1775e-09
-1.1775e-09
-1.1775e-09
-1.17749e-09
-1.17749e-09
-1.17749e-09
-1.17749e-09
-1.17748e-09
-1.17748e-09
-1.17748e-09
-1.17747e-09
-1.17747e-09
-1.17746e-09
-1.17745e-09
-1.17745e-09
-1.17744e-09
-1.17743e-09
-1.17742e-09
-1.17741e-09
-1.1774e-09
-1.17739e-09
-1.17738e-09
-1.17737e-09
-1.17735e-09
-1.17733e-09
-1.17731e-09
-1.17728e-09
-1.17725e-09
-1.1772e-09
-1.17714e-09
-1.17705e-09
-1.17693e-09
-1.17677e-09
-1.17654e-09
-1.17621e-09
-1.17574e-09
-1.1751e-09
-1.1742e-09
-1.17299e-09
-1.17142e-09
-1.16953e-09
-1.16787e-09
-1.17042e-09
-1.17997e-09
-1.53438e-09
-1.54352e-09
-1.5463e-09
-1.54852e-09
-1.551e-09
-1.55299e-09
-1.55452e-09
-1.55567e-09
-1.55651e-09
-1.55711e-09
-1.55755e-09
-1.55786e-09
-1.55808e-09
-1.55824e-09
-1.55836e-09
-1.55844e-09
-1.55851e-09
-1.55856e-09
-1.5586e-09
-1.55863e-09
-1.55866e-09
-1.55868e-09
-1.5587e-09
-1.55872e-09
-1.55873e-09
-1.55875e-09
-1.55876e-09
-1.55877e-09
-1.55878e-09
-1.55879e-09
-1.5588e-09
-1.55881e-09
-1.55882e-09
-1.55882e-09
-1.55883e-09
-1.55884e-09
-1.55884e-09
-1.55885e-09
-1.55885e-09
-1.55885e-09
-1.55886e-09
-1.55886e-09
-1.55886e-09
-1.55886e-09
-1.55886e-09
-1.55886e-09
-1.55887e-09
-1.55886e-09
-1.55886e-09
-1.55886e-09
-1.55886e-09
-1.55886e-09
-1.55886e-09
-1.55885e-09
-1.55885e-09
-1.55885e-09
-1.55884e-09
-1.55884e-09
-1.55883e-09
-1.55882e-09
-1.55882e-09
-1.55881e-09
-1.5588e-09
-1.55879e-09
-1.55878e-09
-1.55877e-09
-1.55876e-09
-1.55875e-09
-1.55873e-09
-1.55872e-09
-1.5587e-09
-1.55868e-09
-1.55866e-09
-1.55863e-09
-1.5586e-09
-1.55856e-09
-1.55851e-09
-1.55845e-09
-1.55836e-09
-1.55824e-09
-1.55808e-09
-1.55786e-09
-1.55755e-09
-1.55712e-09
-1.55651e-09
-1.55567e-09
-1.55452e-09
-1.55299e-09
-1.551e-09
-1.54852e-09
-1.5463e-09
-1.54352e-09
-1.53438e-09
-1.40793e-09
-1.41445e-09
-1.41837e-09
-1.42087e-09
-1.42333e-09
-1.42528e-09
-1.42677e-09
-1.4279e-09
-1.42873e-09
-1.42933e-09
-1.42977e-09
-1.43008e-09
-1.4303e-09
-1.43047e-09
-1.43059e-09
-1.43068e-09
-1.43074e-09
-1.43079e-09
-1.43083e-09
-1.43087e-09
-1.4309e-09
-1.43092e-09
-1.43094e-09
-1.43096e-09
-1.43097e-09
-1.43099e-09
-1.431e-09
-1.43101e-09
-1.43103e-09
-1.43104e-09
-1.43104e-09
-1.43105e-09
-1.43106e-09
-1.43107e-09
-1.43107e-09
-1.43108e-09
-1.43109e-09
-1.43109e-09
-1.43109e-09
-1.4311e-09
-1.4311e-09
-1.4311e-09
-1.43111e-09
-1.43111e-09
-1.43111e-09
-1.43111e-09
-1.43111e-09
-1.43111e-09
-1.43111e-09
-1.43111e-09
-1.43111e-09
-1.4311e-09
-1.4311e-09
-1.4311e-09
-1.43109e-09
-1.43109e-09
-1.43109e-09
-1.43108e-09
-1.43107e-09
-1.43107e-09
-1.43106e-09
-1.43105e-09
-1.43105e-09
-1.43104e-09
-1.43103e-09
-1.43101e-09
-1.431e-09
-1.43099e-09
-1.43097e-09
-1.43096e-09
-1.43094e-09
-1.43092e-09
-1.4309e-09
-1.43087e-09
-1.43083e-09
-1.43079e-09
-1.43074e-09
-1.43068e-09
-1.43059e-09
-1.43047e-09
-1.43031e-09
-1.43008e-09
-1.42977e-09
-1.42933e-09
-1.42873e-09
-1.4279e-09
-1.42677e-09
-1.42528e-09
-1.42333e-09
-1.42087e-09
-1.41837e-09
-1.41445e-09
-1.40793e-09
-1.38053e-09
-1.38491e-09
-1.38831e-09
-1.39093e-09
-1.39334e-09
-1.39527e-09
-1.39676e-09
-1.3979e-09
-1.39875e-09
-1.39937e-09
-1.39982e-09
-1.40015e-09
-1.40038e-09
-1.40056e-09
-1.40069e-09
-1.40078e-09
-1.40086e-09
-1.40092e-09
-1.40096e-09
-1.401e-09
-1.40103e-09
-1.40106e-09
-1.40108e-09
-1.4011e-09
-1.40112e-09
-1.40113e-09
-1.40115e-09
-1.40116e-09
-1.40117e-09
-1.40119e-09
-1.4012e-09
-1.4012e-09
-1.40121e-09
-1.40122e-09
-1.40123e-09
-1.40123e-09
-1.40124e-09
-1.40125e-09
-1.40125e-09
-1.40125e-09
-1.40126e-09
-1.40126e-09
-1.40126e-09
-1.40126e-09
-1.40127e-09
-1.40127e-09
-1.40127e-09
-1.40127e-09
-1.40127e-09
-1.40126e-09
-1.40126e-09
-1.40126e-09
-1.40126e-09
-1.40125e-09
-1.40125e-09
-1.40125e-09
-1.40124e-09
-1.40123e-09
-1.40123e-09
-1.40122e-09
-1.40121e-09
-1.40121e-09
-1.4012e-09
-1.40119e-09
-1.40117e-09
-1.40116e-09
-1.40115e-09
-1.40113e-09
-1.40112e-09
-1.4011e-09
-1.40108e-09
-1.40106e-09
-1.40103e-09
-1.401e-09
-1.40096e-09
-1.40092e-09
-1.40086e-09
-1.40078e-09
-1.40069e-09
-1.40056e-09
-1.40039e-09
-1.40015e-09
-1.39982e-09
-1.39937e-09
-1.39875e-09
-1.3979e-09
-1.39676e-09
-1.39527e-09
-1.39334e-09
-1.39093e-09
-1.38831e-09
-1.38491e-09
-1.38053e-09
-1.38821e-09
-1.39239e-09
-1.3953e-09
-1.39785e-09
-1.40013e-09
-1.40202e-09
-1.40349e-09
-1.40464e-09
-1.4055e-09
-1.40614e-09
-1.40661e-09
-1.40696e-09
-1.40721e-09
-1.4074e-09
-1.40754e-09
-1.40765e-09
-1.40773e-09
-1.4078e-09
-1.40785e-09
-1.40789e-09
-1.40793e-09
-1.40796e-09
-1.40799e-09
-1.40801e-09
-1.40803e-09
-1.40805e-09
-1.40807e-09
-1.40808e-09
-1.4081e-09
-1.40811e-09
-1.40812e-09
-1.40813e-09
-1.40814e-09
-1.40815e-09
-1.40816e-09
-1.40816e-09
-1.40817e-09
-1.40818e-09
-1.40818e-09
-1.40819e-09
-1.40819e-09
-1.40819e-09
-1.4082e-09
-1.4082e-09
-1.4082e-09
-1.4082e-09
-1.4082e-09
-1.4082e-09
-1.4082e-09
-1.4082e-09
-1.4082e-09
-1.40819e-09
-1.40819e-09
-1.40819e-09
-1.40818e-09
-1.40818e-09
-1.40817e-09
-1.40816e-09
-1.40816e-09
-1.40815e-09
-1.40814e-09
-1.40813e-09
-1.40812e-09
-1.40811e-09
-1.4081e-09
-1.40808e-09
-1.40807e-09
-1.40805e-09
-1.40803e-09
-1.40801e-09
-1.40799e-09
-1.40796e-09
-1.40793e-09
-1.40789e-09
-1.40785e-09
-1.4078e-09
-1.40773e-09
-1.40765e-09
-1.40754e-09
-1.4074e-09
-1.40721e-09
-1.40696e-09
-1.40661e-09
-1.40614e-09
-1.4055e-09
-1.40464e-09
-1.40349e-09
-1.40202e-09
-1.40013e-09
-1.39785e-09
-1.3953e-09
-1.39239e-09
-1.38821e-09
-1.38837e-09
-1.39144e-09
-1.39397e-09
-1.39632e-09
-1.39844e-09
-1.40025e-09
-1.40168e-09
-1.40281e-09
-1.40367e-09
-1.40432e-09
-1.40481e-09
-1.40518e-09
-1.40545e-09
-1.40565e-09
-1.40581e-09
-1.40593e-09
-1.40602e-09
-1.40609e-09
-1.40615e-09
-1.4062e-09
-1.40624e-09
-1.40628e-09
-1.40631e-09
-1.40634e-09
-1.40636e-09
-1.40638e-09
-1.4064e-09
-1.40642e-09
-1.40643e-09
-1.40645e-09
-1.40646e-09
-1.40647e-09
-1.40648e-09
-1.40649e-09
-1.4065e-09
-1.40651e-09
-1.40652e-09
-1.40652e-09
-1.40653e-09
-1.40653e-09
-1.40654e-09
-1.40654e-09
-1.40655e-09
-1.40655e-09
-1.40655e-09
-1.40655e-09
-1.40655e-09
-1.40655e-09
-1.40655e-09
-1.40655e-09
-1.40655e-09
-1.40654e-09
-1.40654e-09
-1.40653e-09
-1.40653e-09
-1.40652e-09
-1.40652e-09
-1.40651e-09
-1.4065e-09
-1.40649e-09
-1.40648e-09
-1.40647e-09
-1.40646e-09
-1.40645e-09
-1.40643e-09
-1.40642e-09
-1.4064e-09
-1.40638e-09
-1.40636e-09
-1.40634e-09
-1.40631e-09
-1.40628e-09
-1.40624e-09
-1.4062e-09
-1.40615e-09
-1.40609e-09
-1.40602e-09
-1.40593e-09
-1.40581e-09
-1.40565e-09
-1.40545e-09
-1.40518e-09
-1.40481e-09
-1.40432e-09
-1.40367e-09
-1.40281e-09
-1.40168e-09
-1.40025e-09
-1.39844e-09
-1.39632e-09
-1.39397e-09
-1.39144e-09
-1.38837e-09
-1.3859e-09
-1.38825e-09
-1.39033e-09
-1.39246e-09
-1.3944e-09
-1.39609e-09
-1.39746e-09
-1.39857e-09
-1.39942e-09
-1.40008e-09
-1.40058e-09
-1.40096e-09
-1.40125e-09
-1.40147e-09
-1.40164e-09
-1.40177e-09
-1.40187e-09
-1.40195e-09
-1.40202e-09
-1.40208e-09
-1.40212e-09
-1.40216e-09
-1.4022e-09
-1.40223e-09
-1.40226e-09
-1.40228e-09
-1.4023e-09
-1.40232e-09
-1.40234e-09
-1.40236e-09
-1.40237e-09
-1.40238e-09
-1.4024e-09
-1.40241e-09
-1.40242e-09
-1.40243e-09
-1.40243e-09
-1.40244e-09
-1.40245e-09
-1.40245e-09
-1.40246e-09
-1.40246e-09
-1.40247e-09
-1.40247e-09
-1.40247e-09
-1.40247e-09
-1.40247e-09
-1.40247e-09
-1.40247e-09
-1.40247e-09
-1.40247e-09
-1.40246e-09
-1.40246e-09
-1.40245e-09
-1.40245e-09
-1.40244e-09
-1.40244e-09
-1.40243e-09
-1.40242e-09
-1.40241e-09
-1.4024e-09
-1.40238e-09
-1.40237e-09
-1.40236e-09
-1.40234e-09
-1.40232e-09
-1.4023e-09
-1.40228e-09
-1.40226e-09
-1.40223e-09
-1.4022e-09
-1.40216e-09
-1.40212e-09
-1.40208e-09
-1.40202e-09
-1.40195e-09
-1.40187e-09
-1.40177e-09
-1.40164e-09
-1.40147e-09
-1.40125e-09
-1.40096e-09
-1.40058e-09
-1.40008e-09
-1.39942e-09
-1.39857e-09
-1.39746e-09
-1.39609e-09
-1.3944e-09
-1.39246e-09
-1.39033e-09
-1.38825e-09
-1.3859e-09
-1.38494e-09
-1.38659e-09
-1.38831e-09
-1.39019e-09
-1.39194e-09
-1.39351e-09
-1.39481e-09
-1.39588e-09
-1.39672e-09
-1.39738e-09
-1.39789e-09
-1.39828e-09
-1.39858e-09
-1.39882e-09
-1.399e-09
-1.39914e-09
-1.39925e-09
-1.39935e-09
-1.39942e-09
-1.39948e-09
-1.39954e-09
-1.39958e-09
-1.39962e-09
-1.39965e-09
-1.39969e-09
-1.39971e-09
-1.39974e-09
-1.39976e-09
-1.39978e-09
-1.3998e-09
-1.39981e-09
-1.39983e-09
-1.39984e-09
-1.39986e-09
-1.39987e-09
-1.39988e-09
-1.39989e-09
-1.39989e-09
-1.3999e-09
-1.39991e-09
-1.39991e-09
-1.39992e-09
-1.39992e-09
-1.39992e-09
-1.39993e-09
-1.39993e-09
-1.39993e-09
-1.39993e-09
-1.39993e-09
-1.39992e-09
-1.39992e-09
-1.39992e-09
-1.39991e-09
-1.39991e-09
-1.3999e-09
-1.39989e-09
-1.39989e-09
-1.39988e-09
-1.39987e-09
-1.39986e-09
-1.39984e-09
-1.39983e-09
-1.39982e-09
-1.3998e-09
-1.39978e-09
-1.39976e-09
-1.39974e-09
-1.39971e-09
-1.39969e-09
-1.39966e-09
-1.39962e-09
-1.39958e-09
-1.39954e-09
-1.39948e-09
-1.39942e-09
-1.39935e-09
-1.39925e-09
-1.39914e-09
-1.399e-09
-1.39882e-09
-1.39858e-09
-1.39828e-09
-1.39789e-09
-1.39738e-09
-1.39672e-09
-1.39588e-09
-1.39481e-09
-1.39351e-09
-1.39194e-09
-1.39019e-09
-1.38831e-09
-1.38659e-09
-1.38494e-09
-1.3839e-09
-1.38524e-09
-1.38665e-09
-1.38829e-09
-1.38985e-09
-1.3913e-09
-1.39252e-09
-1.39354e-09
-1.39436e-09
-1.39501e-09
-1.39553e-09
-1.39593e-09
-1.39624e-09
-1.39649e-09
-1.39668e-09
-1.39683e-09
-1.39696e-09
-1.39706e-09
-1.39714e-09
-1.39721e-09
-1.39727e-09
-1.39732e-09
-1.39736e-09
-1.3974e-09
-1.39744e-09
-1.39747e-09
-1.39749e-09
-1.39752e-09
-1.39754e-09
-1.39756e-09
-1.39758e-09
-1.3976e-09
-1.39761e-09
-1.39763e-09
-1.39764e-09
-1.39765e-09
-1.39766e-09
-1.39767e-09
-1.39768e-09
-1.39768e-09
-1.39769e-09
-1.39769e-09
-1.3977e-09
-1.3977e-09
-1.3977e-09
-1.3977e-09
-1.39771e-09
-1.3977e-09
-1.3977e-09
-1.3977e-09
-1.3977e-09
-1.39769e-09
-1.39769e-09
-1.39768e-09
-1.39768e-09
-1.39767e-09
-1.39766e-09
-1.39765e-09
-1.39764e-09
-1.39763e-09
-1.39761e-09
-1.3976e-09
-1.39758e-09
-1.39756e-09
-1.39754e-09
-1.39752e-09
-1.39749e-09
-1.39747e-09
-1.39744e-09
-1.3974e-09
-1.39736e-09
-1.39732e-09
-1.39727e-09
-1.39721e-09
-1.39714e-09
-1.39706e-09
-1.39696e-09
-1.39683e-09
-1.39668e-09
-1.39649e-09
-1.39624e-09
-1.39593e-09
-1.39553e-09
-1.39501e-09
-1.39436e-09
-1.39354e-09
-1.39252e-09
-1.3913e-09
-1.38985e-09
-1.38829e-09
-1.38665e-09
-1.38524e-09
-1.3839e-09
-1.38296e-09
-1.38396e-09
-1.38513e-09
-1.38654e-09
-1.38793e-09
-1.38924e-09
-1.39038e-09
-1.39134e-09
-1.39214e-09
-1.39278e-09
-1.39329e-09
-1.3937e-09
-1.39402e-09
-1.39428e-09
-1.39448e-09
-1.39464e-09
-1.39478e-09
-1.39488e-09
-1.39497e-09
-1.39505e-09
-1.39512e-09
-1.39517e-09
-1.39522e-09
-1.39526e-09
-1.3953e-09
-1.39534e-09
-1.39537e-09
-1.3954e-09
-1.39542e-09
-1.39544e-09
-1.39546e-09
-1.39548e-09
-1.3955e-09
-1.39551e-09
-1.39553e-09
-1.39554e-09
-1.39555e-09
-1.39556e-09
-1.39557e-09
-1.39558e-09
-1.39558e-09
-1.39559e-09
-1.39559e-09
-1.3956e-09
-1.3956e-09
-1.3956e-09
-1.3956e-09
-1.3956e-09
-1.3956e-09
-1.3956e-09
-1.39559e-09
-1.39559e-09
-1.39558e-09
-1.39558e-09
-1.39557e-09
-1.39556e-09
-1.39555e-09
-1.39554e-09
-1.39553e-09
-1.39551e-09
-1.3955e-09
-1.39548e-09
-1.39546e-09
-1.39544e-09
-1.39542e-09
-1.3954e-09
-1.39537e-09
-1.39534e-09
-1.3953e-09
-1.39526e-09
-1.39522e-09
-1.39517e-09
-1.39512e-09
-1.39505e-09
-1.39498e-09
-1.39488e-09
-1.39478e-09
-1.39464e-09
-1.39448e-09
-1.39428e-09
-1.39402e-09
-1.3937e-09
-1.39329e-09
-1.39278e-09
-1.39214e-09
-1.39134e-09
-1.39038e-09
-1.38924e-09
-1.38793e-09
-1.38654e-09
-1.38513e-09
-1.38396e-09
-1.38296e-09
-1.38175e-09
-1.38256e-09
-1.38352e-09
-1.38474e-09
-1.38596e-09
-1.38715e-09
-1.3882e-09
-1.38911e-09
-1.38987e-09
-1.39049e-09
-1.391e-09
-1.39141e-09
-1.39174e-09
-1.392e-09
-1.39221e-09
-1.39239e-09
-1.39253e-09
-1.39264e-09
-1.39274e-09
-1.39283e-09
-1.3929e-09
-1.39296e-09
-1.39301e-09
-1.39306e-09
-1.3931e-09
-1.39314e-09
-1.39317e-09
-1.3932e-09
-1.39323e-09
-1.39325e-09
-1.39328e-09
-1.3933e-09
-1.39332e-09
-1.39333e-09
-1.39335e-09
-1.39336e-09
-1.39337e-09
-1.39338e-09
-1.39339e-09
-1.3934e-09
-1.39341e-09
-1.39341e-09
-1.39342e-09
-1.39342e-09
-1.39343e-09
-1.39343e-09
-1.39343e-09
-1.39343e-09
-1.39343e-09
-1.39342e-09
-1.39342e-09
-1.39341e-09
-1.39341e-09
-1.3934e-09
-1.39339e-09
-1.39338e-09
-1.39337e-09
-1.39336e-09
-1.39335e-09
-1.39333e-09
-1.39332e-09
-1.3933e-09
-1.39328e-09
-1.39326e-09
-1.39323e-09
-1.3932e-09
-1.39317e-09
-1.39314e-09
-1.3931e-09
-1.39306e-09
-1.39301e-09
-1.39296e-09
-1.3929e-09
-1.39283e-09
-1.39274e-09
-1.39264e-09
-1.39253e-09
-1.39239e-09
-1.39221e-09
-1.392e-09
-1.39174e-09
-1.39141e-09
-1.391e-09
-1.39049e-09
-1.38987e-09
-1.38911e-09
-1.3882e-09
-1.38715e-09
-1.38596e-09
-1.38474e-09
-1.38352e-09
-1.38256e-09
-1.38175e-09
-1.38036e-09
-1.381e-09
-1.38181e-09
-1.38285e-09
-1.38393e-09
-1.385e-09
-1.38596e-09
-1.38681e-09
-1.38753e-09
-1.38814e-09
-1.38864e-09
-1.38904e-09
-1.38937e-09
-1.38964e-09
-1.38986e-09
-1.39004e-09
-1.39019e-09
-1.39032e-09
-1.39042e-09
-1.39051e-09
-1.39059e-09
-1.39065e-09
-1.39071e-09
-1.39076e-09
-1.39081e-09
-1.39085e-09
-1.39089e-09
-1.39092e-09
-1.39095e-09
-1.39098e-09
-1.391e-09
-1.39102e-09
-1.39104e-09
-1.39106e-09
-1.39108e-09
-1.39109e-09
-1.39111e-09
-1.39112e-09
-1.39113e-09
-1.39114e-09
-1.39114e-09
-1.39115e-09
-1.39116e-09
-1.39116e-09
-1.39116e-09
-1.39116e-09
-1.39117e-09
-1.39116e-09
-1.39116e-09
-1.39116e-09
-1.39116e-09
-1.39115e-09
-1.39114e-09
-1.39114e-09
-1.39113e-09
-1.39112e-09
-1.39111e-09
-1.39109e-09
-1.39108e-09
-1.39106e-09
-1.39104e-09
-1.39102e-09
-1.391e-09
-1.39098e-09
-1.39095e-09
-1.39092e-09
-1.39089e-09
-1.39085e-09
-1.39081e-09
-1.39076e-09
-1.39071e-09
-1.39065e-09
-1.39059e-09
-1.39051e-09
-1.39042e-09
-1.39032e-09
-1.39019e-09
-1.39004e-09
-1.38986e-09
-1.38964e-09
-1.38937e-09
-1.38904e-09
-1.38864e-09
-1.38814e-09
-1.38753e-09
-1.38681e-09
-1.38596e-09
-1.385e-09
-1.38393e-09
-1.38285e-09
-1.38181e-09
-1.381e-09
-1.38036e-09
-1.37862e-09
-1.37916e-09
-1.37984e-09
-1.38074e-09
-1.38169e-09
-1.38265e-09
-1.38353e-09
-1.38432e-09
-1.38501e-09
-1.38559e-09
-1.38607e-09
-1.38647e-09
-1.3868e-09
-1.38708e-09
-1.3873e-09
-1.38749e-09
-1.38765e-09
-1.38778e-09
-1.38789e-09
-1.38798e-09
-1.38807e-09
-1.38814e-09
-1.3882e-09
-1.38826e-09
-1.3883e-09
-1.38835e-09
-1.38839e-09
-1.38842e-09
-1.38846e-09
-1.38849e-09
-1.38851e-09
-1.38854e-09
-1.38856e-09
-1.38858e-09
-1.3886e-09
-1.38861e-09
-1.38863e-09
-1.38864e-09
-1.38865e-09
-1.38866e-09
-1.38867e-09
-1.38867e-09
-1.38868e-09
-1.38868e-09
-1.38869e-09
-1.38869e-09
-1.38869e-09
-1.38869e-09
-1.38869e-09
-1.38868e-09
-1.38868e-09
-1.38867e-09
-1.38867e-09
-1.38866e-09
-1.38865e-09
-1.38864e-09
-1.38863e-09
-1.38861e-09
-1.3886e-09
-1.38858e-09
-1.38856e-09
-1.38854e-09
-1.38851e-09
-1.38849e-09
-1.38846e-09
-1.38842e-09
-1.38839e-09
-1.38835e-09
-1.38831e-09
-1.38826e-09
-1.3882e-09
-1.38814e-09
-1.38807e-09
-1.38798e-09
-1.38789e-09
-1.38778e-09
-1.38765e-09
-1.38749e-09
-1.3873e-09
-1.38708e-09
-1.3868e-09
-1.38647e-09
-1.38607e-09
-1.38559e-09
-1.38501e-09
-1.38432e-09
-1.38353e-09
-1.38265e-09
-1.3817e-09
-1.38074e-09
-1.37984e-09
-1.37916e-09
-1.37862e-09
-1.3765e-09
-1.37696e-09
-1.37755e-09
-1.37833e-09
-1.37917e-09
-1.38003e-09
-1.38084e-09
-1.38157e-09
-1.38221e-09
-1.38276e-09
-1.38323e-09
-1.38363e-09
-1.38396e-09
-1.38423e-09
-1.38446e-09
-1.38465e-09
-1.38481e-09
-1.38495e-09
-1.38507e-09
-1.38517e-09
-1.38526e-09
-1.38533e-09
-1.3854e-09
-1.38546e-09
-1.38551e-09
-1.38556e-09
-1.3856e-09
-1.38564e-09
-1.38567e-09
-1.3857e-09
-1.38573e-09
-1.38576e-09
-1.38578e-09
-1.3858e-09
-1.38582e-09
-1.38584e-09
-1.38585e-09
-1.38587e-09
-1.38588e-09
-1.38589e-09
-1.3859e-09
-1.38591e-09
-1.38591e-09
-1.38592e-09
-1.38592e-09
-1.38592e-09
-1.38592e-09
-1.38592e-09
-1.38592e-09
-1.38592e-09
-1.38591e-09
-1.38591e-09
-1.3859e-09
-1.38589e-09
-1.38588e-09
-1.38587e-09
-1.38585e-09
-1.38584e-09
-1.38582e-09
-1.3858e-09
-1.38578e-09
-1.38576e-09
-1.38573e-09
-1.3857e-09
-1.38567e-09
-1.38564e-09
-1.3856e-09
-1.38556e-09
-1.38551e-09
-1.38546e-09
-1.3854e-09
-1.38533e-09
-1.38526e-09
-1.38517e-09
-1.38507e-09
-1.38495e-09
-1.38481e-09
-1.38465e-09
-1.38446e-09
-1.38423e-09
-1.38396e-09
-1.38363e-09
-1.38323e-09
-1.38276e-09
-1.38221e-09
-1.38157e-09
-1.38084e-09
-1.38003e-09
-1.37918e-09
-1.37833e-09
-1.37755e-09
-1.37696e-09
-1.3765e-09
-1.37392e-09
-1.37434e-09
-1.37486e-09
-1.37555e-09
-1.3763e-09
-1.37707e-09
-1.3778e-09
-1.37848e-09
-1.37908e-09
-1.3796e-09
-1.38006e-09
-1.38044e-09
-1.38076e-09
-1.38104e-09
-1.38127e-09
-1.38146e-09
-1.38163e-09
-1.38177e-09
-1.38189e-09
-1.382e-09
-1.38209e-09
-1.38217e-09
-1.38224e-09
-1.3823e-09
-1.38236e-09
-1.38241e-09
-1.38246e-09
-1.3825e-09
-1.38253e-09
-1.38257e-09
-1.3826e-09
-1.38262e-09
-1.38265e-09
-1.38267e-09
-1.38269e-09
-1.38271e-09
-1.38273e-09
-1.38274e-09
-1.38275e-09
-1.38276e-09
-1.38277e-09
-1.38278e-09
-1.38279e-09
-1.38279e-09
-1.3828e-09
-1.3828e-09
-1.3828e-09
-1.3828e-09
-1.3828e-09
-1.38279e-09
-1.38279e-09
-1.38278e-09
-1.38277e-09
-1.38276e-09
-1.38275e-09
-1.38274e-09
-1.38273e-09
-1.38271e-09
-1.38269e-09
-1.38267e-09
-1.38265e-09
-1.38262e-09
-1.3826e-09
-1.38257e-09
-1.38253e-09
-1.3825e-09
-1.38246e-09
-1.38241e-09
-1.38236e-09
-1.3823e-09
-1.38224e-09
-1.38217e-09
-1.38209e-09
-1.382e-09
-1.38189e-09
-1.38177e-09
-1.38163e-09
-1.38146e-09
-1.38127e-09
-1.38104e-09
-1.38076e-09
-1.38044e-09
-1.38006e-09
-1.3796e-09
-1.37908e-09
-1.37848e-09
-1.3778e-09
-1.37707e-09
-1.3763e-09
-1.37555e-09
-1.37486e-09
-1.37434e-09
-1.37392e-09
-1.37082e-09
-1.37124e-09
-1.37171e-09
-1.37233e-09
-1.373e-09
-1.3737e-09
-1.37436e-09
-1.37499e-09
-1.37555e-09
-1.37605e-09
-1.37648e-09
-1.37685e-09
-1.37717e-09
-1.37744e-09
-1.37767e-09
-1.37787e-09
-1.37804e-09
-1.37818e-09
-1.37831e-09
-1.37842e-09
-1.37851e-09
-1.3786e-09
-1.37867e-09
-1.37874e-09
-1.3788e-09
-1.37885e-09
-1.3789e-09
-1.37894e-09
-1.37898e-09
-1.37901e-09
-1.37905e-09
-1.37908e-09
-1.3791e-09
-1.37913e-09
-1.37915e-09
-1.37917e-09
-1.37918e-09
-1.3792e-09
-1.37921e-09
-1.37922e-09
-1.37923e-09
-1.37924e-09
-1.37925e-09
-1.37925e-09
-1.37926e-09
-1.37926e-09
-1.37926e-09
-1.37926e-09
-1.37926e-09
-1.37925e-09
-1.37925e-09
-1.37924e-09
-1.37923e-09
-1.37922e-09
-1.37921e-09
-1.3792e-09
-1.37918e-09
-1.37917e-09
-1.37915e-09
-1.37913e-09
-1.3791e-09
-1.37908e-09
-1.37905e-09
-1.37901e-09
-1.37898e-09
-1.37894e-09
-1.3789e-09
-1.37885e-09
-1.3788e-09
-1.37874e-09
-1.37867e-09
-1.3786e-09
-1.37851e-09
-1.37842e-09
-1.37831e-09
-1.37818e-09
-1.37804e-09
-1.37787e-09
-1.37767e-09
-1.37744e-09
-1.37717e-09
-1.37685e-09
-1.37648e-09
-1.37605e-09
-1.37555e-09
-1.37499e-09
-1.37436e-09
-1.3737e-09
-1.373e-09
-1.37233e-09
-1.37171e-09
-1.37124e-09
-1.37082e-09
-1.36717e-09
-1.36762e-09
-1.36806e-09
-1.36863e-09
-1.36924e-09
-1.36986e-09
-1.37048e-09
-1.37105e-09
-1.37157e-09
-1.37204e-09
-1.37245e-09
-1.37281e-09
-1.37312e-09
-1.37339e-09
-1.37362e-09
-1.37382e-09
-1.37399e-09
-1.37414e-09
-1.37426e-09
-1.37438e-09
-1.37448e-09
-1.37456e-09
-1.37464e-09
-1.37471e-09
-1.37477e-09
-1.37483e-09
-1.37488e-09
-1.37492e-09
-1.37496e-09
-1.375e-09
-1.37503e-09
-1.37506e-09
-1.37509e-09
-1.37512e-09
-1.37514e-09
-1.37516e-09
-1.37518e-09
-1.37519e-09
-1.37521e-09
-1.37522e-09
-1.37523e-09
-1.37524e-09
-1.37525e-09
-1.37525e-09
-1.37526e-09
-1.37526e-09
-1.37526e-09
-1.37526e-09
-1.37526e-09
-1.37525e-09
-1.37525e-09
-1.37524e-09
-1.37523e-09
-1.37522e-09
-1.37521e-09
-1.37519e-09
-1.37518e-09
-1.37516e-09
-1.37514e-09
-1.37512e-09
-1.37509e-09
-1.37506e-09
-1.37503e-09
-1.375e-09
-1.37496e-09
-1.37492e-09
-1.37488e-09
-1.37483e-09
-1.37477e-09
-1.37471e-09
-1.37464e-09
-1.37456e-09
-1.37448e-09
-1.37438e-09
-1.37426e-09
-1.37414e-09
-1.37399e-09
-1.37382e-09
-1.37362e-09
-1.37339e-09
-1.37312e-09
-1.37281e-09
-1.37245e-09
-1.37204e-09
-1.37157e-09
-1.37105e-09
-1.37048e-09
-1.36987e-09
-1.36924e-09
-1.36863e-09
-1.36807e-09
-1.36762e-09
-1.36717e-09
-1.3629e-09
-1.36344e-09
-1.36388e-09
-1.3644e-09
-1.36496e-09
-1.36553e-09
-1.36609e-09
-1.36662e-09
-1.36711e-09
-1.36755e-09
-1.36794e-09
-1.36828e-09
-1.36858e-09
-1.36885e-09
-1.36907e-09
-1.36927e-09
-1.36944e-09
-1.36959e-09
-1.36972e-09
-1.36984e-09
-1.36994e-09
-1.37003e-09
-1.37011e-09
-1.37018e-09
-1.37025e-09
-1.3703e-09
-1.37036e-09
-1.3704e-09
-1.37045e-09
-1.37048e-09
-1.37052e-09
-1.37055e-09
-1.37058e-09
-1.37061e-09
-1.37063e-09
-1.37065e-09
-1.37067e-09
-1.37069e-09
-1.3707e-09
-1.37071e-09
-1.37072e-09
-1.37073e-09
-1.37074e-09
-1.37075e-09
-1.37075e-09
-1.37075e-09
-1.37075e-09
-1.37075e-09
-1.37075e-09
-1.37075e-09
-1.37074e-09
-1.37073e-09
-1.37072e-09
-1.37071e-09
-1.3707e-09
-1.37069e-09
-1.37067e-09
-1.37065e-09
-1.37063e-09
-1.37061e-09
-1.37058e-09
-1.37055e-09
-1.37052e-09
-1.37048e-09
-1.37045e-09
-1.3704e-09
-1.37036e-09
-1.3703e-09
-1.37025e-09
-1.37018e-09
-1.37011e-09
-1.37003e-09
-1.36994e-09
-1.36984e-09
-1.36972e-09
-1.36959e-09
-1.36944e-09
-1.36927e-09
-1.36907e-09
-1.36885e-09
-1.36858e-09
-1.36828e-09
-1.36794e-09
-1.36755e-09
-1.36711e-09
-1.36662e-09
-1.36609e-09
-1.36553e-09
-1.36496e-09
-1.3644e-09
-1.36388e-09
-1.36344e-09
-1.3629e-09
-1.35807e-09
-1.3587e-09
-1.35914e-09
-1.35963e-09
-1.36015e-09
-1.36067e-09
-1.36118e-09
-1.36167e-09
-1.36212e-09
-1.36253e-09
-1.3629e-09
-1.36323e-09
-1.36352e-09
-1.36378e-09
-1.364e-09
-1.3642e-09
-1.36437e-09
-1.36452e-09
-1.36465e-09
-1.36477e-09
-1.36487e-09
-1.36496e-09
-1.36504e-09
-1.36512e-09
-1.36519e-09
-1.36524e-09
-1.3653e-09
-1.36535e-09
-1.36539e-09
-1.36543e-09
-1.36547e-09
-1.3655e-09
-1.36553e-09
-1.36556e-09
-1.36558e-09
-1.36561e-09
-1.36563e-09
-1.36564e-09
-1.36566e-09
-1.36567e-09
-1.36568e-09
-1.36569e-09
-1.3657e-09
-1.36571e-09
-1.36571e-09
-1.36571e-09
-1.36571e-09
-1.36571e-09
-1.36571e-09
-1.36571e-09
-1.3657e-09
-1.36569e-09
-1.36568e-09
-1.36567e-09
-1.36566e-09
-1.36564e-09
-1.36563e-09
-1.36561e-09
-1.36558e-09
-1.36556e-09
-1.36553e-09
-1.3655e-09
-1.36547e-09
-1.36543e-09
-1.36539e-09
-1.36535e-09
-1.3653e-09
-1.36525e-09
-1.36519e-09
-1.36512e-09
-1.36505e-09
-1.36496e-09
-1.36487e-09
-1.36477e-09
-1.36465e-09
-1.36452e-09
-1.36437e-09
-1.3642e-09
-1.364e-09
-1.36378e-09
-1.36352e-09
-1.36323e-09
-1.3629e-09
-1.36253e-09
-1.36212e-09
-1.36167e-09
-1.36118e-09
-1.36067e-09
-1.36015e-09
-1.35963e-09
-1.35914e-09
-1.3587e-09
-1.35807e-09
-1.35274e-09
-1.3534e-09
-1.35383e-09
-1.35428e-09
-1.35476e-09
-1.35524e-09
-1.35571e-09
-1.35616e-09
-1.35658e-09
-1.35696e-09
-1.35731e-09
-1.35763e-09
-1.35791e-09
-1.35816e-09
-1.35837e-09
-1.35857e-09
-1.35874e-09
-1.35889e-09
-1.35902e-09
-1.35914e-09
-1.35924e-09
-1.35934e-09
-1.35942e-09
-1.3595e-09
-1.35956e-09
-1.35963e-09
-1.35968e-09
-1.35973e-09
-1.35978e-09
-1.35982e-09
-1.35986e-09
-1.35989e-09
-1.35992e-09
-1.35995e-09
-1.35998e-09
-1.36e-09
-1.36002e-09
-1.36004e-09
-1.36005e-09
-1.36007e-09
-1.36008e-09
-1.36009e-09
-1.3601e-09
-1.3601e-09
-1.36011e-09
-1.36011e-09
-1.36011e-09
-1.36011e-09
-1.36011e-09
-1.3601e-09
-1.3601e-09
-1.36009e-09
-1.36008e-09
-1.36007e-09
-1.36005e-09
-1.36004e-09
-1.36002e-09
-1.36e-09
-1.35998e-09
-1.35995e-09
-1.35992e-09
-1.35989e-09
-1.35986e-09
-1.35982e-09
-1.35978e-09
-1.35973e-09
-1.35968e-09
-1.35963e-09
-1.35956e-09
-1.3595e-09
-1.35942e-09
-1.35934e-09
-1.35924e-09
-1.35914e-09
-1.35902e-09
-1.35889e-09
-1.35874e-09
-1.35857e-09
-1.35837e-09
-1.35816e-09
-1.35791e-09
-1.35763e-09
-1.35731e-09
-1.35696e-09
-1.35658e-09
-1.35616e-09
-1.35571e-09
-1.35524e-09
-1.35476e-09
-1.35428e-09
-1.35383e-09
-1.3534e-09
-1.35274e-09
-1.34688e-09
-1.34751e-09
-1.34792e-09
-1.34834e-09
-1.34879e-09
-1.34923e-09
-1.34966e-09
-1.35007e-09
-1.35046e-09
-1.35082e-09
-1.35115e-09
-1.35145e-09
-1.35172e-09
-1.35196e-09
-1.35217e-09
-1.35236e-09
-1.35253e-09
-1.35268e-09
-1.35281e-09
-1.35293e-09
-1.35304e-09
-1.35313e-09
-1.35322e-09
-1.35329e-09
-1.35336e-09
-1.35343e-09
-1.35348e-09
-1.35353e-09
-1.35358e-09
-1.35362e-09
-1.35366e-09
-1.3537e-09
-1.35373e-09
-1.35376e-09
-1.35379e-09
-1.35381e-09
-1.35383e-09
-1.35385e-09
-1.35387e-09
-1.35388e-09
-1.35389e-09
-1.3539e-09
-1.35391e-09
-1.35392e-09
-1.35392e-09
-1.35392e-09
-1.35392e-09
-1.35392e-09
-1.35392e-09
-1.35392e-09
-1.35391e-09
-1.3539e-09
-1.35389e-09
-1.35388e-09
-1.35387e-09
-1.35385e-09
-1.35383e-09
-1.35381e-09
-1.35379e-09
-1.35376e-09
-1.35373e-09
-1.3537e-09
-1.35366e-09
-1.35362e-09
-1.35358e-09
-1.35353e-09
-1.35348e-09
-1.35343e-09
-1.35336e-09
-1.35329e-09
-1.35322e-09
-1.35313e-09
-1.35304e-09
-1.35293e-09
-1.35281e-09
-1.35268e-09
-1.35253e-09
-1.35236e-09
-1.35217e-09
-1.35196e-09
-1.35172e-09
-1.35145e-09
-1.35115e-09
-1.35082e-09
-1.35046e-09
-1.35007e-09
-1.34966e-09
-1.34923e-09
-1.34879e-09
-1.34834e-09
-1.34792e-09
-1.34751e-09
-1.34688e-09
-1.34043e-09
-1.34101e-09
-1.3414e-09
-1.3418e-09
-1.34221e-09
-1.34261e-09
-1.34301e-09
-1.34339e-09
-1.34376e-09
-1.34409e-09
-1.3444e-09
-1.34468e-09
-1.34494e-09
-1.34517e-09
-1.34538e-09
-1.34556e-09
-1.34573e-09
-1.34587e-09
-1.34601e-09
-1.34612e-09
-1.34623e-09
-1.34633e-09
-1.34641e-09
-1.34649e-09
-1.34656e-09
-1.34663e-09
-1.34668e-09
-1.34674e-09
-1.34678e-09
-1.34683e-09
-1.34687e-09
-1.3469e-09
-1.34694e-09
-1.34697e-09
-1.34699e-09
-1.34702e-09
-1.34704e-09
-1.34706e-09
-1.34708e-09
-1.34709e-09
-1.3471e-09
-1.34711e-09
-1.34712e-09
-1.34713e-09
-1.34713e-09
-1.34714e-09
-1.34714e-09
-1.34714e-09
-1.34713e-09
-1.34713e-09
-1.34712e-09
-1.34711e-09
-1.3471e-09
-1.34709e-09
-1.34708e-09
-1.34706e-09
-1.34704e-09
-1.34702e-09
-1.34699e-09
-1.34697e-09
-1.34694e-09
-1.3469e-09
-1.34687e-09
-1.34683e-09
-1.34678e-09
-1.34674e-09
-1.34668e-09
-1.34663e-09
-1.34656e-09
-1.34649e-09
-1.34641e-09
-1.34633e-09
-1.34623e-09
-1.34612e-09
-1.34601e-09
-1.34587e-09
-1.34573e-09
-1.34556e-09
-1.34538e-09
-1.34517e-09
-1.34494e-09
-1.34468e-09
-1.3444e-09
-1.34409e-09
-1.34376e-09
-1.34339e-09
-1.34301e-09
-1.34261e-09
-1.34221e-09
-1.3418e-09
-1.3414e-09
-1.34101e-09
-1.34043e-09
-1.33339e-09
-1.33391e-09
-1.33427e-09
-1.33463e-09
-1.33501e-09
-1.33539e-09
-1.33575e-09
-1.3361e-09
-1.33644e-09
-1.33675e-09
-1.33704e-09
-1.33731e-09
-1.33755e-09
-1.33778e-09
-1.33797e-09
-1.33815e-09
-1.33832e-09
-1.33846e-09
-1.33859e-09
-1.33871e-09
-1.33882e-09
-1.33891e-09
-1.339e-09
-1.33908e-09
-1.33915e-09
-1.33921e-09
-1.33927e-09
-1.33933e-09
-1.33938e-09
-1.33942e-09
-1.33946e-09
-1.3395e-09
-1.33953e-09
-1.33956e-09
-1.33959e-09
-1.33961e-09
-1.33964e-09
-1.33966e-09
-1.33967e-09
-1.33969e-09
-1.3397e-09
-1.33971e-09
-1.33972e-09
-1.33973e-09
-1.33973e-09
-1.33974e-09
-1.33974e-09
-1.33974e-09
-1.33973e-09
-1.33973e-09
-1.33972e-09
-1.33971e-09
-1.3397e-09
-1.33969e-09
-1.33967e-09
-1.33966e-09
-1.33964e-09
-1.33961e-09
-1.33959e-09
-1.33956e-09
-1.33953e-09
-1.3395e-09
-1.33946e-09
-1.33942e-09
-1.33938e-09
-1.33933e-09
-1.33927e-09
-1.33921e-09
-1.33915e-09
-1.33908e-09
-1.339e-09
-1.33891e-09
-1.33882e-09
-1.33871e-09
-1.33859e-09
-1.33846e-09
-1.33832e-09
-1.33815e-09
-1.33797e-09
-1.33778e-09
-1.33755e-09
-1.33731e-09
-1.33704e-09
-1.33675e-09
-1.33644e-09
-1.3361e-09
-1.33575e-09
-1.33539e-09
-1.33501e-09
-1.33463e-09
-1.33427e-09
-1.33391e-09
-1.33339e-09
-1.32572e-09
-1.32617e-09
-1.3265e-09
-1.32684e-09
-1.32719e-09
-1.32753e-09
-1.32787e-09
-1.32819e-09
-1.32851e-09
-1.3288e-09
-1.32907e-09
-1.32932e-09
-1.32955e-09
-1.32976e-09
-1.32996e-09
-1.33013e-09
-1.33029e-09
-1.33043e-09
-1.33056e-09
-1.33067e-09
-1.33078e-09
-1.33088e-09
-1.33096e-09
-1.33104e-09
-1.33111e-09
-1.33118e-09
-1.33124e-09
-1.33129e-09
-1.33134e-09
-1.33139e-09
-1.33143e-09
-1.33147e-09
-1.3315e-09
-1.33153e-09
-1.33156e-09
-1.33159e-09
-1.33161e-09
-1.33163e-09
-1.33165e-09
-1.33166e-09
-1.33168e-09
-1.33169e-09
-1.3317e-09
-1.3317e-09
-1.33171e-09
-1.33171e-09
-1.33171e-09
-1.33171e-09
-1.33171e-09
-1.3317e-09
-1.3317e-09
-1.33169e-09
-1.33168e-09
-1.33166e-09
-1.33165e-09
-1.33163e-09
-1.33161e-09
-1.33159e-09
-1.33156e-09
-1.33153e-09
-1.3315e-09
-1.33147e-09
-1.33143e-09
-1.33139e-09
-1.33134e-09
-1.33129e-09
-1.33124e-09
-1.33118e-09
-1.33111e-09
-1.33104e-09
-1.33096e-09
-1.33088e-09
-1.33078e-09
-1.33068e-09
-1.33056e-09
-1.33043e-09
-1.33029e-09
-1.33013e-09
-1.32996e-09
-1.32976e-09
-1.32955e-09
-1.32932e-09
-1.32907e-09
-1.3288e-09
-1.32851e-09
-1.32819e-09
-1.32787e-09
-1.32753e-09
-1.32719e-09
-1.32684e-09
-1.3265e-09
-1.32617e-09
-1.32572e-09
-1.31741e-09
-1.3178e-09
-1.3181e-09
-1.31841e-09
-1.31873e-09
-1.31904e-09
-1.31935e-09
-1.31966e-09
-1.31994e-09
-1.32022e-09
-1.32047e-09
-1.32071e-09
-1.32093e-09
-1.32113e-09
-1.32131e-09
-1.32148e-09
-1.32163e-09
-1.32177e-09
-1.3219e-09
-1.32201e-09
-1.32212e-09
-1.32221e-09
-1.3223e-09
-1.32238e-09
-1.32245e-09
-1.32252e-09
-1.32258e-09
-1.32263e-09
-1.32268e-09