/*--------------------------------*- C++ -*----------------------------------*\
| =========                 |                                                 |
| \\      /  F ield         | OpenFOAM: The Open Source CFD Toolbox           |
|  \\    /   O peration     | Version:  2406                                  |
|   \\  /    A nd           | Website:  www.openfoam.com                      |
|    \\/     M anipulation  |                                                 |
\*---------------------------------------------------------------------------*/
FoamFile
{
    version     2.0;
    format      ascii;
    arch        "LSB;label=32;scalar=64";
    class       surfaceScalarField;
    location    "97500";
    object      phi;
}
// * * * * * * * * * * * * * * * * * * * * * * * * * * * * * * * * * * * * * //

dimensions      [0 3 -1 0 0 0 0];

oriented        oriented;

internalField   nonuniform List<scalar> 
27842
(
4.37194e-15
6.32306e-12
5.42903e-15
6.18028e-12
4.60492e-15
6.16794e-12
4.26317e-15
6.17504e-12
3.37055e-15
6.18462e-12
2.59648e-15
6.1922e-12
1.99525e-15
6.19798e-12
1.53669e-15
6.20226e-12
1.19786e-15
6.20536e-12
9.49979e-16
6.20758e-12
7.70098e-16
6.20916e-12
6.40081e-16
6.21029e-12
5.46068e-16
6.21108e-12
4.77742e-16
6.21165e-12
4.27554e-16
6.21206e-12
3.90049e-16
6.21236e-12
3.61337e-16
6.21259e-12
3.3867e-16
6.21276e-12
3.20117e-16
6.2129e-12
3.04342e-16
6.21301e-12
2.90416e-16
6.21311e-12
2.77706e-16
6.21319e-12
2.65779e-16
6.21326e-12
2.5434e-16
6.21332e-12
2.43191e-16
6.21338e-12
2.32205e-16
6.21343e-12
2.21289e-16
6.21348e-12
2.10392e-16
6.21352e-12
1.99474e-16
6.21356e-12
1.88515e-16
6.2136e-12
1.77503e-16
6.21363e-12
1.66428e-16
6.21366e-12
1.55289e-16
6.21369e-12
1.4409e-16
6.21372e-12
1.32826e-16
6.21374e-12
1.21508e-16
6.21376e-12
1.10133e-16
6.21378e-12
9.87095e-17
6.2138e-12
8.72433e-17
6.21381e-12
7.57358e-17
6.21383e-12
6.4194e-17
6.21384e-12
5.26251e-17
6.21385e-12
4.103e-17
6.21386e-12
2.94184e-17
6.21386e-12
1.77913e-17
6.21387e-12
6.15549e-18
6.21387e-12
-5.48205e-18
6.21387e-12
-1.71203e-17
6.21387e-12
-2.87522e-17
6.21387e-12
-4.03711e-17
6.21386e-12
-5.19758e-17
6.21386e-12
-6.35569e-17
6.21385e-12
-7.51133e-17
6.21384e-12
-8.66378e-17
6.21383e-12
-9.81235e-17
6.21382e-12
-1.09569e-16
6.2138e-12
-1.20968e-16
6.21378e-12
-1.32313e-16
6.21376e-12
-1.43604e-16
6.21374e-12
-1.54833e-16
6.21372e-12
-1.66003e-16
6.21369e-12
-1.77109e-16
6.21366e-12
-1.88153e-16
6.21363e-12
-1.99144e-16
6.2136e-12
-2.10094e-16
6.21356e-12
-2.21021e-16
6.21352e-12
-2.31966e-16
6.21348e-12
-2.42979e-16
6.21343e-12
-2.54153e-16
6.21338e-12
-2.65616e-16
6.21332e-12
-2.77563e-16
6.21326e-12
-2.90293e-16
6.21319e-12
-3.04236e-16
6.21311e-12
-3.20027e-16
6.21302e-12
-3.38595e-16
6.2129e-12
-3.61276e-16
6.21277e-12
-3.90001e-16
6.21259e-12
-4.2752e-16
6.21237e-12
-4.7772e-16
6.21206e-12
-5.46059e-16
6.21165e-12
-6.40085e-16
6.21108e-12
-7.70111e-16
6.21029e-12
-9.50002e-16
6.20916e-12
-1.19789e-15
6.20758e-12
-1.53672e-15
6.20536e-12
-1.99529e-15
6.20226e-12
-2.59652e-15
6.19798e-12
-3.37059e-15
6.1922e-12
-4.26321e-15
6.18462e-12
-4.60494e-15
6.17504e-12
-5.42905e-15
6.16794e-12
-4.37195e-15
6.18028e-12
6.32306e-12
1.05523e-14
6.3125e-12
9.39562e-15
6.18144e-12
1.01669e-14
6.16717e-12
9.0443e-15
6.17616e-12
7.49244e-15
6.18617e-12
5.98836e-15
6.1937e-12
4.74756e-15
6.19922e-12
3.77839e-15
6.20323e-12
3.03926e-15
6.2061e-12
2.48509e-15
6.20814e-12
2.07338e-15
6.20958e-12
1.76887e-15
6.21059e-12
1.54353e-15
6.21131e-12
1.37586e-15
6.21182e-12
1.24964e-15
6.21219e-12
1.15293e-15
6.21246e-12
1.07698e-15
6.21267e-12
1.01551e-15
6.21283e-12
9.64021e-16
6.21295e-12
9.19338e-16
6.21306e-12
8.79224e-16
6.21315e-12
8.4212e-16
6.21323e-12
8.06948e-16
6.2133e-12
7.72965e-16
6.21336e-12
7.39665e-16
6.21341e-12
7.06711e-16
6.21346e-12
6.73873e-16
6.21351e-12
6.41006e-16
6.21355e-12
6.08013e-16
6.21359e-12
5.74839e-16
6.21363e-12
5.41453e-16
6.21367e-12
5.07839e-16
6.2137e-12
4.73995e-16
6.21372e-12
4.39926e-16
6.21375e-12
4.0564e-16
6.21378e-12
3.71152e-16
6.2138e-12
3.36476e-16
6.21382e-12
3.01628e-16
6.21383e-12
2.66629e-16
6.21385e-12
2.31492e-16
6.21386e-12
1.96237e-16
6.21387e-12
1.60884e-16
6.21388e-12
1.25448e-16
6.21389e-12
8.99486e-17
6.2139e-12
5.44015e-17
6.2139e-12
1.88251e-17
6.21391e-12
-1.67624e-17
6.21391e-12
-5.23463e-17
6.21391e-12
-8.79082e-17
6.2139e-12
-1.2343e-16
6.2139e-12
-1.58896e-16
6.21389e-12
-1.94286e-16
6.21389e-12
-2.29585e-16
6.21388e-12
-2.64774e-16
6.21386e-12
-2.99834e-16
6.21385e-12
-3.34748e-16
6.21384e-12
-3.69497e-16
6.21382e-12
-4.04065e-16
6.2138e-12
-4.38437e-16
6.21378e-12
-4.72596e-16
6.21375e-12
-5.06534e-16
6.21373e-12
-5.40244e-16
6.2137e-12
-5.73726e-16
6.21367e-12
-6.06997e-16
6.21363e-12
-6.40085e-16
6.2136e-12
-6.73045e-16
6.21356e-12
-7.05972e-16
6.21351e-12
-7.39009e-16
6.21347e-12
-7.72386e-16
6.21341e-12
-8.06441e-16
6.21336e-12
-8.41677e-16
6.2133e-12
-8.78841e-16
6.21323e-12
-9.19009e-16
6.21315e-12
-9.63741e-16
6.21306e-12
-1.01527e-15
6.21295e-12
-1.07679e-15
6.21283e-12
-1.15278e-15
6.21267e-12
-1.24953e-15
6.21246e-12
-1.37579e-15
6.21219e-12
-1.5435e-15
6.21182e-12
-1.76887e-15
6.21131e-12
-2.07342e-15
6.21059e-12
-2.48515e-15
6.20958e-12
-3.03935e-15
6.20814e-12
-3.77849e-15
6.2061e-12
-4.74768e-15
6.20323e-12
-5.98847e-15
6.19922e-12
-7.49255e-15
6.1937e-12
-9.0444e-15
6.18618e-12
-1.0167e-14
6.17616e-12
-9.39568e-15
6.16717e-12
-1.05524e-14
6.18144e-12
6.3125e-12
1.36465e-14
6.29886e-12
1.51273e-14
6.17996e-12
1.3666e-14
6.16863e-12
1.17642e-14
6.17806e-12
9.69775e-15
6.18824e-12
7.90081e-15
6.1955e-12
6.4231e-15
6.20069e-12
5.25381e-15
6.2044e-12
4.34885e-15
6.207e-12
3.65855e-15
6.20883e-12
3.13619e-15
6.2101e-12
2.74212e-15
6.21098e-12
2.44422e-15
6.2116e-12
2.21734e-15
6.21205e-12
2.04223e-15
6.21236e-12
1.90443e-15
6.2126e-12
1.79321e-15
6.21278e-12
1.70071e-15
6.21292e-12
1.62125e-15
6.21303e-12
1.55072e-15
6.21313e-12
1.48622e-15
6.21321e-12
1.42568e-15
6.21329e-12
1.36767e-15
6.21335e-12
1.31116e-15
6.21341e-12
1.25547e-15
6.21347e-12
1.20014e-15
6.21352e-12
1.14484e-15
6.21357e-12
1.08936e-15
6.21361e-12
1.03359e-15
6.21365e-12
9.77441e-16
6.21369e-12
9.20874e-16
6.21372e-12
8.63874e-16
6.21375e-12
8.06443e-16
6.21378e-12
7.48595e-16
6.21381e-12
6.90349e-16
6.21383e-12
6.31733e-16
6.21386e-12
5.72775e-16
6.21388e-12
5.13505e-16
6.21389e-12
4.53957e-16
6.21391e-12
3.94162e-16
6.21392e-12
3.34154e-16
6.21393e-12
2.73965e-16
6.21394e-12
2.13628e-16
6.21395e-12
1.53175e-16
6.21396e-12
9.26379e-17
6.21396e-12
3.20478e-17
6.21397e-12
-2.85643e-17
6.21397e-12
-8.91668e-17
6.21397e-12
-1.49729e-16
6.21396e-12
-2.10219e-16
6.21396e-12
-2.70606e-16
6.21395e-12
-3.30857e-16
6.21395e-12
-3.9094e-16
6.21394e-12
-4.50822e-16
6.21392e-12
-5.10471e-16
6.21391e-12
-5.69852e-16
6.21389e-12
-6.28932e-16
6.21388e-12
-6.87683e-16
6.21386e-12
-7.46071e-16
6.21384e-12
-8.04069e-16
6.21381e-12
-8.61656e-16
6.21378e-12
-9.18816e-16
6.21376e-12
-9.75545e-16
6.21372e-12
-1.03186e-15
6.21369e-12
-1.08779e-15
6.21365e-12
-1.14342e-15
6.21361e-12
-1.19887e-15
6.21357e-12
-1.25434e-15
6.21352e-12
-1.31016e-15
6.21347e-12
-1.36678e-15
6.21342e-12
-1.42491e-15
6.21335e-12
-1.48555e-15
6.21329e-12
-1.55014e-15
6.21321e-12
-1.62075e-15
6.21313e-12
-1.7003e-15
6.21303e-12
-1.79287e-15
6.21292e-12
-1.90416e-15
6.21278e-12
-2.04203e-15
6.2126e-12
-2.21721e-15
6.21236e-12
-2.44415e-15
6.21205e-12
-2.74211e-15
6.21161e-12
-3.13624e-15
6.21099e-12
-3.65865e-15
6.2101e-12
-4.34898e-15
6.20883e-12
-5.25397e-15
6.207e-12
-6.42327e-15
6.2044e-12
-7.90098e-15
6.2007e-12
-9.69791e-15
6.1955e-12
-1.17644e-14
6.18824e-12
-1.36661e-14
6.17806e-12
-1.51274e-14
6.16863e-12
-1.36465e-14
6.17996e-12
6.29886e-12
2.18049e-14
6.27705e-12
2.12544e-14
6.18051e-12
1.66981e-14
6.17318e-12
1.31324e-14
6.18163e-12
1.07708e-14
6.1906e-12
8.86033e-15
6.19741e-12
7.35404e-15
6.2022e-12
6.1688e-15
6.20558e-12
5.24723e-15
6.20792e-12
4.53667e-15
6.20954e-12
3.99095e-15
6.21064e-12
3.57177e-15
6.2114e-12
3.24819e-15
6.21193e-12
2.99584e-15
6.2123e-12
2.79587e-15
6.21256e-12
2.63399e-15
6.21276e-12
2.49946e-15
6.21291e-12
2.3843e-15
6.21303e-12
2.28267e-15
6.21313e-12
2.19032e-15
6.21322e-12
2.10417e-15
6.2133e-12
2.02204e-15
6.21337e-12
1.94235e-15
6.21343e-12
1.86404e-15
6.21349e-12
1.78633e-15
6.21355e-12
1.70872e-15
6.2136e-12
1.63087e-15
6.21364e-12
1.55255e-15
6.21369e-12
1.47364e-15
6.21373e-12
1.39405e-15
6.21377e-12
1.31376e-15
6.2138e-12
1.23276e-15
6.21383e-12
1.15106e-15
6.21386e-12
1.06871e-15
6.21389e-12
9.85736e-16
6.21392e-12
9.02181e-16
6.21394e-12
8.18097e-16
6.21396e-12
7.33531e-16
6.21398e-12
6.48535e-16
6.21399e-12
5.63161e-16
6.21401e-12
4.77458e-16
6.21402e-12
3.91479e-16
6.21403e-12
3.05272e-16
6.21404e-12
2.18888e-16
6.21405e-12
1.32375e-16
6.21405e-12
4.57817e-17
6.21405e-12
-4.08448e-17
6.21405e-12
-1.27456e-16
6.21405e-12
-2.14004e-16
6.21405e-12
-3.0044e-16
6.21405e-12
-3.86717e-16
6.21404e-12
-4.72784e-16
6.21403e-12
-5.58592e-16
6.21402e-12
-6.44089e-16
6.21401e-12
-7.29225e-16
6.214e-12
-8.13947e-16
6.21398e-12
-8.98203e-16
6.21396e-12
-9.81944e-16
6.21394e-12
-1.06512e-15
6.21392e-12
-1.14768e-15
6.21389e-12
-1.22959e-15
6.21387e-12
-1.31082e-15
6.21384e-12
-1.39134e-15
6.2138e-12
-1.47115e-15
6.21377e-12
-1.55029e-15
6.21373e-12
-1.62882e-15
6.21369e-12
-1.70688e-15
6.21365e-12
-1.78469e-15
6.2136e-12
-1.86258e-15
6.21355e-12
-1.94107e-15
6.21349e-12
-2.02091e-15
6.21343e-12
-2.10319e-15
6.21337e-12
-2.18947e-15
6.2133e-12
-2.28195e-15
6.21322e-12
-2.38369e-15
6.21314e-12
-2.49895e-15
6.21304e-12
-2.63359e-15
6.21291e-12
-2.79557e-15
6.21276e-12
-2.99562e-15
6.21256e-12
-3.24807e-15
6.2123e-12
-3.57174e-15
6.21193e-12
-3.99099e-15
6.2114e-12
-4.53677e-15
6.21064e-12
-5.24739e-15
6.20954e-12
-6.169e-15
6.20793e-12
-7.35426e-15
6.20558e-12
-8.86056e-15
6.2022e-12
-1.0771e-14
6.19741e-12
-1.31326e-14
6.1906e-12
-1.66982e-14
6.18163e-12
-2.12545e-14
6.17319e-12
-2.18049e-14
6.18051e-12
6.27705e-12
2.47687e-14
6.25228e-12
2.01742e-14
6.1851e-12
1.52209e-14
6.17814e-12
1.23586e-14
6.18449e-12
1.02478e-14
6.19271e-12
8.71523e-15
6.19894e-12
7.50458e-15
6.20341e-12
6.54256e-15
6.20654e-12
5.77628e-15
6.20869e-12
5.16783e-15
6.21015e-12
4.68497e-15
6.21113e-12
4.30082e-15
6.21179e-12
3.99309e-15
6.21224e-12
3.74365e-15
6.21255e-12
3.53806e-15
6.21277e-12
3.36498e-15
6.21293e-12
3.21564e-15
6.21306e-12
3.08335e-15
6.21317e-12
2.96305e-15
6.21325e-12
2.85097e-15
6.21333e-12
2.74434e-15
6.21341e-12
2.64113e-15
6.21347e-12
2.53987e-15
6.21353e-12
2.43953e-15
6.21359e-12
2.33938e-15
6.21365e-12
2.23893e-15
6.2137e-12
2.13784e-15
6.21375e-12
2.0359e-15
6.21379e-12
1.93301e-15
6.21383e-12
1.82909e-15
6.21387e-12
1.72413e-15
6.21391e-12
1.61816e-15
6.21394e-12
1.51119e-15
6.21397e-12
1.4033e-15
6.214e-12
1.29452e-15
6.21403e-12
1.18494e-15
6.21405e-12
1.07462e-15
6.21407e-12
9.63629e-16
6.21409e-12
8.52041e-16
6.21411e-12
7.39926e-16
6.21412e-12
6.27357e-16
6.21413e-12
5.14405e-16
6.21414e-12
4.01138e-16
6.21415e-12
2.87626e-16
6.21416e-12
1.73936e-16
6.21416e-12
6.01346e-17
6.21417e-12
-5.37109e-17
6.21417e-12
-1.67535e-16
6.21417e-12
-2.8127e-16
6.21416e-12
-3.9485e-16
6.21416e-12
-5.08208e-16
6.21415e-12
-6.21273e-16
6.21414e-12
-7.33977e-16
6.21413e-12
-8.4625e-16
6.21412e-12
-9.58019e-16
6.21411e-12
-1.06921e-15
6.21409e-12
-1.17975e-15
6.21407e-12
-1.28958e-15
6.21405e-12
-1.3986e-15
6.21403e-12
-1.50677e-15
6.214e-12
-1.61401e-15
6.21397e-12
-1.72028e-15
6.21394e-12
-1.82553e-15
6.21391e-12
-1.92974e-15
6.21387e-12
-2.03292e-15
6.21383e-12
-2.13513e-15
6.21379e-12
-2.23649e-15
6.21375e-12
-2.3372e-15
6.2137e-12
-2.43759e-15
6.21365e-12
-2.53815e-15
6.21359e-12
-2.63962e-15
6.21354e-12
-2.74302e-15
6.21347e-12
-2.84982e-15
6.21341e-12
-2.96206e-15
6.21334e-12
-3.08252e-15
6.21326e-12
-3.21495e-15
6.21317e-12
-3.36442e-15
6.21306e-12
-3.53763e-15
6.21293e-12
-3.74334e-15
6.21277e-12
-3.9929e-15
6.21255e-12
-4.30075e-15
6.21224e-12
-4.68499e-15
6.21179e-12
-5.16793e-15
6.21113e-12
-5.77645e-15
6.21015e-12
-6.54279e-15
6.20869e-12
-7.50483e-15
6.20655e-12
-8.71549e-15
6.20341e-12
-1.0248e-14
6.19894e-12
-1.23589e-14
6.19271e-12
-1.52211e-14
6.18449e-12
-2.01743e-14
6.17814e-12
-2.47688e-14
6.18511e-12
6.25228e-12
1.59742e-14
6.23631e-12
1.69597e-14
6.18412e-12
1.34348e-14
6.18166e-12
1.07016e-14
6.18722e-12
9.21845e-15
6.1942e-12
8.14632e-15
6.20001e-12
7.32379e-15
6.20423e-12
6.65898e-15
6.20721e-12
6.11068e-15
6.20924e-12
5.65566e-15
6.2106e-12
5.2766e-15
6.21151e-12
4.95942e-15
6.2121e-12
4.692e-15
6.2125e-12
4.46398e-15
6.21278e-12
4.26656e-15
6.21297e-12
4.09246e-15
6.21311e-12
3.93573e-15
6.21322e-12
3.79163e-15
6.21331e-12
3.65643e-15
6.21339e-12
3.52725e-15
6.21346e-12
3.40189e-15
6.21353e-12
3.27872e-15
6.2136e-12
3.15653e-15
6.21366e-12
3.03444e-15
6.21371e-12
2.91185e-15
6.21377e-12
2.78834e-15
6.21382e-12
2.66364e-15
6.21387e-12
2.53758e-15
6.21392e-12
2.4101e-15
6.21396e-12
2.28115e-15
6.214e-12
2.15076e-15
6.21404e-12
2.01898e-15
6.21407e-12
1.88586e-15
6.2141e-12
1.75149e-15
6.21413e-12
1.61596e-15
6.21416e-12
1.47935e-15
6.21419e-12
1.34176e-15
6.21421e-12
1.20329e-15
6.21423e-12
1.06403e-15
6.21424e-12
9.24085e-16
6.21426e-12
7.83541e-16
6.21427e-12
6.42493e-16
6.21428e-12
5.01033e-16
6.21429e-12
3.59251e-16
6.2143e-12
2.17236e-16
6.21431e-12
7.50768e-17
6.21431e-12
-6.71404e-17
6.21431e-12
-2.09328e-16
6.21431e-12
-3.51398e-16
6.21431e-12
-4.93263e-16
6.2143e-12
-6.34833e-16
6.21429e-12
-7.7602e-16
6.21429e-12
-9.1673e-16
6.21427e-12
-1.05687e-15
6.21426e-12
-1.19635e-15
6.21425e-12
-1.33506e-15
6.21423e-12
-1.47292e-15
6.21421e-12
-1.60982e-15
6.21419e-12
-1.74567e-15
6.21416e-12
-1.88036e-15
6.21414e-12
-2.01382e-15
6.21411e-12
-2.14596e-15
6.21407e-12
-2.2767e-15
6.21404e-12
-2.40601e-15
6.214e-12
-2.53385e-15
6.21396e-12
-2.66024e-15
6.21392e-12
-2.78527e-15
6.21387e-12
-2.9091e-15
6.21382e-12
-3.03199e-15
6.21377e-12
-3.15435e-15
6.21372e-12
-3.2768e-15
6.21366e-12
-3.40021e-15
6.2136e-12
-3.52578e-15
6.21353e-12
-3.65517e-15
6.21347e-12
-3.79055e-15
6.21339e-12
-3.93483e-15
6.21331e-12
-4.09173e-15
6.21322e-12
-4.26599e-15
6.21311e-12
-4.46357e-15
6.21297e-12
-4.69173e-15
6.21278e-12
-4.95928e-15
6.21251e-12
-5.27658e-15
6.21211e-12
-5.65574e-15
6.21151e-12
-6.11085e-15
6.2106e-12
-6.65922e-15
6.20924e-12
-7.32406e-15
6.20721e-12
-8.1466e-15
6.20424e-12
-9.21873e-15
6.20001e-12
-1.07019e-14
6.1942e-12
-1.3435e-14
6.18722e-12
-1.69599e-14
6.18166e-12
-1.59743e-14
6.18412e-12
6.23631e-12
1.44707e-14
6.22184e-12
1.22935e-14
6.1863e-12
9.94835e-15
6.18401e-12
8.61212e-15
6.18856e-12
7.8078e-15
6.195e-12
7.30796e-15
6.20051e-12
6.93172e-15
6.20461e-12
6.61164e-15
6.20753e-12
6.3209e-15
6.20953e-12
6.05235e-15
6.21087e-12
5.80422e-15
6.21175e-12
5.57581e-15
6.21233e-12
5.3659e-15
6.21271e-12
5.17256e-15
6.21297e-12
4.9934e-15
6.21315e-12
4.82581e-15
6.21327e-12
4.66722e-15
6.21338e-12
4.5153e-15
6.21346e-12
4.36799e-15
6.21354e-12
4.22359e-15
6.21361e-12
4.08071e-15
6.21367e-12
3.93825e-15
6.21374e-12
3.7954e-15
6.2138e-12
3.65155e-15
6.21386e-12
3.50626e-15
6.21391e-12
3.35926e-15
6.21397e-12
3.21037e-15
6.21402e-12
3.05951e-15
6.21407e-12
2.90666e-15
6.21411e-12
2.75183e-15
6.21415e-12
2.5951e-15
6.21419e-12
2.43655e-15
6.21423e-12
2.27628e-15
6.21426e-12
2.1144e-15
6.2143e-12
1.95103e-15
6.21432e-12
1.78629e-15
6.21435e-12
1.62031e-15
6.21437e-12
1.45322e-15
6.21439e-12
1.28513e-15
6.21441e-12
1.11616e-15
6.21443e-12
9.46449e-16
6.21444e-12
7.761e-16
6.21445e-12
6.05232e-16
6.21446e-12
4.33959e-16
6.21447e-12
2.62392e-16
6.21448e-12
9.06447e-17
6.21448e-12
-8.11744e-17
6.21448e-12
-2.52955e-16
6.21448e-12
-4.24587e-16
6.21448e-12
-5.95958e-16
6.21447e-12
-7.66957e-16
6.21447e-12
-9.3747e-16
6.21446e-12
-1.10738e-15
6.21444e-12
-1.27657e-15
6.21443e-12
-1.44492e-15
6.21441e-12
-1.6123e-15
6.2144e-12
-1.7786e-15
6.21438e-12
-1.94368e-15
6.21435e-12
-2.10741e-15
6.21433e-12
-2.26968e-15
6.2143e-12
-2.43036e-15
6.21427e-12
-2.58932e-15
6.21423e-12
-2.74647e-15
6.2142e-12
-2.90171e-15
6.21416e-12
-3.05498e-15
6.21412e-12
-3.20625e-15
6.21407e-12
-3.35553e-15
6.21402e-12
-3.5029e-15
6.21397e-12
-3.64854e-15
6.21392e-12
-3.79273e-15
6.21386e-12
-3.93589e-15
6.2138e-12
-4.07863e-15
6.21374e-12
-4.22178e-15
6.21368e-12
-4.36642e-15
6.21361e-12
-4.51396e-15
6.21354e-12
-4.66609e-15
6.21346e-12
-4.82488e-15
6.21338e-12
-4.99267e-15
6.21328e-12
-5.17201e-15
6.21315e-12
-5.36552e-15
6.21297e-12
-5.57559e-15
6.21272e-12
-5.80415e-15
6.21233e-12
-6.0524e-15
6.21176e-12
-6.32105e-15
6.21087e-12
-6.61186e-15
6.20953e-12
-6.93199e-15
6.20753e-12
-7.30825e-15
6.20461e-12
-7.80809e-15
6.20051e-12
-8.61238e-15
6.195e-12
-9.94855e-15
6.18856e-12
-1.22937e-14
6.18401e-12
-1.44708e-14
6.1863e-12
6.22184e-12
7.89862e-15
6.21394e-12
8.16703e-15
6.18603e-12
7.43671e-15
6.18474e-12
6.81701e-15
6.18918e-12
6.59933e-15
6.19522e-12
6.56716e-15
6.20054e-12
6.57338e-15
6.2046e-12
6.56033e-15
6.20754e-12
6.50883e-15
6.20958e-12
6.421e-15
6.21096e-12
6.30535e-15
6.21187e-12
6.171e-15
6.21247e-12
6.02536e-15
6.21286e-12
5.87364e-15
6.21312e-12
5.7191e-15
6.2133e-12
5.56351e-15
6.21343e-12
5.40759e-15
6.21353e-12
5.25143e-15
6.21362e-12
5.09478e-15
6.21369e-12
4.9372e-15
6.21377e-12
4.77823e-15
6.21383e-12
4.61744e-15
6.2139e-12
4.45449e-15
6.21396e-12
4.2891e-15
6.21402e-12
4.1211e-15
6.21408e-12
3.95038e-15
6.21414e-12
3.77691e-15
6.21419e-12
3.60071e-15
6.21424e-12
3.42184e-15
6.21429e-12
3.24041e-15
6.21434e-12
3.05652e-15
6.21438e-12
2.87033e-15
6.21442e-12
2.68197e-15
6.21445e-12
2.4916e-15
6.21449e-12
2.29937e-15
6.21452e-12
2.10546e-15
6.21454e-12
1.91001e-15
6.21457e-12
1.71318e-15
6.21459e-12
1.51512e-15
6.21461e-12
1.316e-15
6.21463e-12
1.11595e-15
6.21464e-12
9.15117e-16
6.21466e-12
7.13651e-16
6.21467e-12
5.11689e-16
6.21467e-12
3.09368e-16
6.21468e-12
1.06825e-16
6.21468e-12
-9.58043e-17
6.21468e-12
-2.98385e-16
6.21468e-12
-5.00781e-16
6.21468e-12
-7.02857e-16
6.21467e-12
-9.04473e-16
6.21467e-12
-1.10549e-15
6.21466e-12
-1.30576e-15
6.21464e-12
-1.50515e-15
6.21463e-12
-1.7035e-15
6.21461e-12
-1.90066e-15
6.21459e-12
-2.09648e-15
6.21457e-12
-2.29078e-15
6.21455e-12
-2.48343e-15
6.21452e-12
-2.67424e-15
6.21449e-12
-2.86306e-15
6.21446e-12
-3.04973e-15
6.21442e-12
-3.2341e-15
6.21438e-12
-3.41602e-15
6.21434e-12
-3.59536e-15
6.21429e-12
-3.77203e-15
6.21425e-12
-3.94595e-15
6.2142e-12
-4.1171e-15
6.21414e-12
-4.28552e-15
6.21409e-12
-4.45129e-15
6.21403e-12
-4.61461e-15
6.21397e-12
-4.77572e-15
6.2139e-12
-4.935e-15
6.21384e-12
-5.09287e-15
6.21377e-12
-5.2498e-15
6.2137e-12
-5.4062e-15
6.21362e-12
-5.56236e-15
6.21353e-12
-5.71819e-15
6.21343e-12
-5.87294e-15
6.2133e-12
-6.02486e-15
6.21312e-12
-6.17069e-15
6.21286e-12
-6.3052e-15
6.21247e-12
-6.42099e-15
6.21187e-12
-6.50894e-15
6.21096e-12
-6.56053e-15
6.20958e-12
-6.57363e-15
6.20754e-12
-6.56744e-15
6.20461e-12
-6.59961e-15
6.20054e-12
-6.81727e-15
6.19522e-12
-7.43692e-15
6.18918e-12
-8.16718e-15
6.18474e-12
-7.89869e-15
6.18603e-12
6.21394e-12
5.9295e-15
6.20801e-12
5.58391e-15
6.18637e-12
5.45605e-15
6.18487e-12
5.41161e-15
6.18922e-12
5.62674e-15
6.195e-12
5.95907e-15
6.20021e-12
6.27833e-15
6.20428e-12
6.52859e-15
6.20729e-12
6.69206e-15
6.20942e-12
6.77392e-15
6.21088e-12
6.78809e-15
6.21185e-12
6.74993e-15
6.21251e-12
6.67307e-15
6.21294e-12
6.56835e-15
6.21322e-12
6.44382e-15
6.21342e-12
6.30511e-15
6.21357e-12
6.15606e-15
6.21368e-12
5.99913e-15
6.21377e-12
5.83587e-15
6.21386e-12
5.66719e-15
6.21393e-12
5.49366e-15
6.21401e-12
5.31559e-15
6.21408e-12
5.13319e-15
6.21414e-12
4.9466e-15
6.21421e-12
4.75594e-15
6.21427e-12
4.56135e-15
6.21433e-12
4.36297e-15
6.21439e-12
4.16096e-15
6.21445e-12
3.95549e-15
6.2145e-12
3.74675e-15
6.21454e-12
3.53493e-15
6.21459e-12
3.32025e-15
6.21463e-12
3.10289e-15
6.21467e-12
2.88307e-15
6.21471e-12
2.66099e-15
6.21474e-12
2.43685e-15
6.21477e-12
2.21085e-15
6.21479e-12
1.98319e-15
6.21482e-12
1.75404e-15
6.21484e-12
1.5236e-15
6.21486e-12
1.29205e-15
6.21487e-12
1.05956e-15
6.21489e-12
8.26305e-16
6.2149e-12
5.92452e-16
6.21491e-12
3.58168e-16
6.21491e-12
1.23619e-16
6.21492e-12
-1.11034e-16
6.21492e-12
-3.45626e-16
6.21492e-12
-5.79995e-16
6.21491e-12
-8.13975e-16
6.21491e-12
-1.0474e-15
6.2149e-12
-1.2801e-15
6.21489e-12
-1.51191e-15
6.21488e-12
-1.74264e-15
6.21486e-12
-1.97212e-15
6.21484e-12
-2.20016e-15
6.21482e-12
-2.42656e-15
6.2148e-12
-2.65114e-15
6.21477e-12
-2.87369e-15
6.21474e-12
-3.09401e-15
6.21471e-12
-3.31189e-15
6.21467e-12
-3.52711e-15
6.21464e-12
-3.73947e-15
6.21459e-12
-3.94875e-15
6.21455e-12
-4.15476e-15
6.2145e-12
-4.3573e-15
6.21445e-12
-4.55619e-15
6.21439e-12
-4.75128e-15
6.21434e-12
-4.9424e-15
6.21428e-12
-5.12943e-15
6.21421e-12
-5.31225e-15
6.21415e-12
-5.4907e-15
6.21408e-12
-5.66459e-15
6.21401e-12
-5.8336e-15
6.21394e-12
-5.99718e-15
6.21386e-12
-6.1544e-15
6.21378e-12
-6.30373e-15
6.21368e-12
-6.44269e-15
6.21357e-12
-6.56747e-15
6.21343e-12
-6.67242e-15
6.21323e-12
-6.74949e-15
6.21294e-12
-6.78784e-15
6.21251e-12
-6.77384e-15
6.21186e-12
-6.6921e-15
6.21088e-12
-6.52874e-15
6.20942e-12
-6.27855e-15
6.20729e-12
-5.95932e-15
6.20429e-12
-5.627e-15
6.20021e-12
-5.41185e-15
6.195e-12
-5.45625e-15
6.18922e-12
-5.58405e-15
6.18487e-12
-5.92957e-15
6.18637e-12
6.20801e-12
3.70491e-15
6.2043e-12
3.79578e-15
6.18628e-12
4.05927e-15
6.1846e-12
4.39666e-15
6.18889e-12
4.9192e-15
6.19448e-12
5.52199e-15
6.19961e-12
6.08528e-15
6.20372e-12
6.55132e-15
6.20683e-12
6.89952e-15
6.20907e-12
7.13383e-15
6.21064e-12
7.26952e-15
6.21172e-12
7.32501e-15
6.21245e-12
7.3178e-15
6.21294e-12
7.26275e-15
6.21328e-12
7.17161e-15
6.21352e-12
7.05331e-15
6.21369e-12
6.91438e-15
6.21382e-12
6.7595e-15
6.21393e-12
6.59194e-15
6.21402e-12
6.41401e-15
6.21411e-12
6.22729e-15
6.21419e-12
6.0329e-15
6.21427e-12
5.83167e-15
6.21435e-12
5.62419e-15
6.21442e-12
5.41095e-15
6.21449e-12
5.19234e-15
6.21455e-12
4.96873e-15
6.21461e-12
4.74045e-15
6.21467e-12
4.50779e-15
6.21473e-12
4.27106e-15
6.21478e-12
4.03054e-15
6.21483e-12
3.78651e-15
6.21488e-12
3.53924e-15
6.21492e-12
3.28901e-15
6.21496e-12
3.03606e-15
6.21499e-12
2.78065e-15
6.21502e-12
2.52301e-15
6.21505e-12
2.26339e-15
6.21508e-12
2.00202e-15
6.2151e-12
1.7391e-15
6.21512e-12
1.47486e-15
6.21514e-12
1.20951e-15
6.21515e-12
9.43256e-16
6.21517e-12
6.76293e-16
6.21517e-12
4.0882e-16
6.21518e-12
1.41033e-16
6.21519e-12
-1.26874e-16
6.21519e-12
-3.94709e-16
6.21519e-12
-6.62276e-16
6.21518e-12
-9.29381e-16
6.21518e-12
-1.19583e-15
6.21517e-12
-1.46141e-15
6.21516e-12
-1.72593e-15
6.21514e-12
-1.98917e-15
6.21512e-12
-2.25092e-15
6.2151e-12
-2.51095e-15
6.21508e-12
-2.76903e-15
6.21506e-12
-3.02493e-15
6.21503e-12
-3.2784e-15
6.215e-12
-3.52919e-15
6.21496e-12
-3.77703e-15
6.21492e-12
-4.02165e-15
6.21488e-12
-4.26277e-15
6.21484e-12
-4.50011e-15
6.21479e-12
-4.73337e-15
6.21473e-12
-4.96225e-15
6.21468e-12
-5.18643e-15
6.21462e-12
-5.40558e-15
6.21456e-12
-5.61935e-15
6.21449e-12
-5.82732e-15
6.21442e-12
-6.02902e-15
6.21435e-12
-6.22384e-15
6.21427e-12
-6.41097e-15
6.2142e-12
-6.58928e-15
6.21412e-12
-6.75719e-15
6.21403e-12
-6.91241e-15
6.21393e-12
-7.05166e-15
6.21382e-12
-7.17025e-15
6.21369e-12
-7.26166e-15
6.21352e-12
-7.31698e-15
6.21328e-12
-7.32442e-15
6.21295e-12
-7.26915e-15
6.21245e-12
-7.13364e-15
6.21172e-12
-6.89948e-15
6.21064e-12
-6.5514e-15
6.20907e-12
-6.08544e-15
6.20683e-12
-5.5222e-15
6.20372e-12
-4.91942e-15
6.19961e-12
-4.39687e-15
6.19448e-12
-4.05945e-15
6.18889e-12
-3.79591e-15
6.1846e-12
-3.70498e-15
6.18628e-12
6.20431e-12
2.55391e-15
6.20175e-12
2.72224e-15
6.18611e-12
3.1805e-15
6.18414e-12
3.75833e-15
6.18831e-12
4.48458e-15
6.19375e-12
5.27392e-15
6.19882e-12
6.01646e-15
6.20298e-12
6.65068e-15
6.20619e-12
7.15096e-15
6.20857e-12
7.51701e-15
6.21027e-12
7.76235e-15
6.21147e-12
7.90572e-15
6.21231e-12
7.96636e-15
6.21288e-12
7.96152e-15
6.21328e-12
7.90561e-15
6.21357e-12
7.81008e-15
6.21378e-12
7.68372e-15
6.21395e-12
7.53316e-15
6.21408e-12
7.36329e-15
6.21419e-12
7.17771e-15
6.2143e-12
6.97905e-15
6.21439e-12
6.76927e-15
6.21448e-12
6.54979e-15
6.21457e-12
6.32175e-15
6.21465e-12
6.086e-15
6.21472e-12
5.84327e-15
6.21479e-12
5.59414e-15
6.21486e-12
5.33914e-15
6.21493e-12
5.07873e-15
6.21499e-12
4.81333e-15
6.21505e-12
4.54335e-15
6.2151e-12
4.26915e-15
6.21515e-12
3.99107e-15
6.2152e-12
3.70947e-15
6.21524e-12
3.42464e-15
6.21528e-12
3.13691e-15
6.21531e-12
2.84655e-15
6.21534e-12
2.55386e-15
6.21537e-12
2.2591e-15
6.2154e-12
1.96254e-15
6.21542e-12
1.66443e-15
6.21544e-12
1.36501e-15
6.21545e-12
1.06454e-15
6.21547e-12
7.63234e-16
6.21548e-12
4.61336e-16
6.21548e-12
1.59072e-16
6.21549e-12
-1.43332e-16
6.21549e-12
-4.45648e-16
6.21549e-12
-7.4765e-16
6.21548e-12
-1.04911e-15
6.21548e-12
-1.34979e-15
6.21547e-12
-1.64946e-15
6.21546e-12
-1.94788e-15
6.21544e-12
-2.2448e-15
6.21542e-12
-2.53996e-15
6.2154e-12
-2.8331e-15
6.21537e-12
-3.12394e-15
6.21535e-12
-3.41221e-15
6.21532e-12
-3.69761e-15
6.21528e-12
-3.97982e-15
6.21524e-12
-4.25852e-15
6.2152e-12
-4.53338e-15
6.21516e-12
-4.80402e-15
6.21511e-12
-5.07008e-15
6.21505e-12
-5.33115e-15
6.215e-12
-5.5868e-15
6.21493e-12
-5.83656e-15
6.21487e-12
-6.0799e-15
6.2148e-12
-6.31623e-15
6.21473e-12
-6.54482e-15
6.21465e-12
-6.76481e-15
6.21457e-12
-6.97509e-15
6.21449e-12
-7.1742e-15
6.2144e-12
-7.36021e-15
6.2143e-12
-7.53048e-15
6.2142e-12
-7.68141e-15
6.21408e-12
-7.80812e-15
6.21395e-12
-7.90399e-15
6.21379e-12
-7.96021e-15
6.21357e-12
-7.96533e-15
6.21329e-12
-7.90496e-15
6.21289e-12
-7.76182e-15
6.21231e-12
-7.51669e-15
6.21148e-12
-7.15081e-15
6.21028e-12
-6.65066e-15
6.20857e-12
-6.01654e-15
6.20619e-12
-5.27407e-15
6.20298e-12
-4.48476e-15
6.19882e-12
-3.75851e-15
6.19376e-12
-3.18066e-15
6.18831e-12
-2.72235e-15
6.18415e-12
-2.55397e-15
6.18611e-12
6.20175e-12
1.88046e-15
6.19987e-12
2.1857e-15
6.18581e-12
2.75484e-15
6.18358e-12
3.47391e-15
6.18759e-12
4.32068e-15
6.19291e-12
5.22562e-15
6.19791e-12
6.08866e-15
6.20212e-12
6.84536e-15
6.20543e-12
7.46419e-15
6.20795e-12
7.93896e-15
6.2098e-12
8.27923e-15
6.21113e-12
8.50192e-15
6.21208e-12
8.62611e-15
6.21276e-12
8.67e-15
6.21324e-12
8.64953e-15
6.21359e-12
8.57791e-15
6.21385e-12
8.46569e-15
6.21406e-12
8.3211e-15
6.21422e-12
8.15047e-15
6.21437e-12
7.95858e-15
6.21449e-12
7.74906e-15
6.2146e-12
7.52466e-15
6.21471e-12
7.28749e-15
6.2148e-12
7.03918e-15
6.21489e-12
6.78101e-15
6.21498e-12
6.51403e-15
6.21506e-12
6.23911e-15
6.21514e-12
5.95698e-15
6.21521e-12
5.66827e-15
6.21528e-12
5.37357e-15
6.21534e-12
5.07338e-15
6.2154e-12
4.76818e-15
6.21545e-12
4.45841e-15
6.21551e-12
4.14448e-15
6.21555e-12
3.82678e-15
6.21559e-12
3.50567e-15
6.21563e-12
3.18151e-15
6.21567e-12
2.85463e-15
6.2157e-12
2.52534e-15
6.21573e-12
2.19396e-15
6.21575e-12
1.86078e-15
6.21577e-12
1.52609e-15
6.21579e-12
1.19017e-15
6.2158e-12
8.53292e-16
6.21581e-12
5.15726e-16
6.21582e-12
1.77736e-16
6.21583e-12
-1.60412e-16
6.21583e-12
-4.98458e-16
6.21583e-12
-8.36137e-16
6.21582e-12
-1.17318e-15
6.21581e-12
-1.50933e-15
6.2158e-12
-1.8443e-15
6.21579e-12
-2.17781e-15
6.21577e-12
-2.50957e-15
6.21575e-12
-2.83929e-15
6.21573e-12
-3.16666e-15
6.2157e-12
-3.49135e-15
6.21567e-12
-3.81303e-15
6.21564e-12
-4.13135e-15
6.2156e-12
-4.44594e-15
6.21556e-12
-4.75639e-15
6.21551e-12
-5.06229e-15
6.21546e-12
-5.3632e-15
6.21541e-12
-5.65862e-15
6.21535e-12
-5.94805e-15
6.21528e-12
-6.23089e-15
6.21522e-12
-6.5065e-15
6.21514e-12
-6.77415e-15
6.21507e-12
-7.03295e-15
6.21499e-12
-7.28187e-15
6.2149e-12
-7.51961e-15
6.21481e-12
-7.74454e-15
6.21471e-12
-7.95457e-15
6.21461e-12
-8.14693e-15
6.21449e-12
-8.31801e-15
6.21437e-12
-8.46301e-15
6.21423e-12
-8.57563e-15
6.21406e-12
-8.64762e-15
6.21386e-12
-8.66843e-15
6.2136e-12
-8.62485e-15
6.21324e-12
-8.50096e-15
6.21276e-12
-8.27852e-15
6.21209e-12
-7.93848e-15
6.21114e-12
-7.4639e-15
6.2098e-12
-6.84523e-15
6.20795e-12
-6.08865e-15
6.20544e-12
-5.22568e-15
6.20212e-12
-4.32079e-15
6.19792e-12
-3.47404e-15
6.19291e-12
-2.75495e-15
6.18759e-12
-2.18578e-15
6.18358e-12
-1.88051e-15
6.18581e-12
6.19987e-12
1.62012e-15
6.19825e-12
2.08787e-15
6.18534e-12
2.72685e-15
6.18294e-12
3.5148e-15
6.1868e-12
4.41703e-15
6.19201e-12
5.37846e-15
6.19695e-12
6.31067e-15
6.20118e-12
7.14771e-15
6.2046e-12
7.85244e-15
6.20725e-12
8.41209e-15
6.20924e-12
8.83088e-15
6.21071e-12
9.12232e-15
6.21179e-12
9.30382e-15
6.21258e-12
9.39323e-15
6.21315e-12
9.40698e-15
6.21358e-12
9.35929e-15
6.2139e-12
9.26192e-15
6.21416e-12
9.12434e-15
6.21436e-12
8.95403e-15
6.21454e-12
8.75686e-15
6.21469e-12
8.53735e-15
6.21482e-12
8.29902e-15
6.21494e-12
8.04463e-15
6.21506e-12
7.77631e-15
6.21516e-12
7.49579e-15
6.21526e-12
7.20447e-15
6.21535e-12
6.90349e-15
6.21544e-12
6.59382e-15
6.21552e-12
6.2763e-15
6.2156e-12
5.95166e-15
6.21567e-12
5.62054e-15
6.21573e-12
5.28354e-15
6.21579e-12
4.9412e-15
6.21585e-12
4.59401e-15
6.2159e-12
4.24244e-15
6.21595e-12
3.88693e-15
6.21599e-12
3.52788e-15
6.21603e-12
3.1657e-15
6.21606e-12
2.80074e-15
6.21609e-12
2.43337e-15
6.21612e-12
2.06393e-15
6.21614e-12
1.69275e-15
6.21616e-12
1.32016e-15
6.21617e-12
9.46471e-16
6.21619e-12
5.71991e-16
6.2162e-12
1.97027e-16
6.2162e-12
-1.78119e-16
6.2162e-12
-5.53144e-16
6.2162e-12
-9.27744e-16
6.2162e-12
-1.30162e-15
6.21619e-12
-1.67445e-15
6.21618e-12
-2.04592e-15
6.21616e-12
-2.41572e-15
6.21614e-12
-2.7835e-15
6.21612e-12
-3.14892e-15
6.21609e-12
-3.51163e-15
6.21606e-12
-3.87124e-15
6.21603e-12
-4.22738e-15
6.21599e-12
-4.57961e-15
6.21595e-12
-4.92749e-15
6.21591e-12
-5.27057e-15
6.21585e-12
-5.60832e-15
6.2158e-12
-5.94021e-15
6.21574e-12
-6.26563e-15
6.21567e-12
-6.58393e-15
6.2156e-12
-6.89436e-15
6.21553e-12
-7.19609e-15
6.21545e-12
-7.48813e-15
6.21536e-12
-7.76934e-15
6.21527e-12
-8.03831e-15
6.21517e-12
-8.29334e-15
6.21506e-12
-8.53225e-15
6.21495e-12
-8.75232e-15
6.21483e-12
-8.95001e-15
6.21469e-12
-9.1208e-15
6.21454e-12
-9.25885e-15
6.21437e-12
-9.35665e-15
6.21416e-12
-9.40475e-15
6.21391e-12
-9.39136e-15
6.21358e-12
-9.30231e-15
6.21316e-12
-9.12112e-15
6.21258e-12
-8.82997e-15
6.2118e-12
-8.41142e-15
6.21072e-12
-7.85199e-15
6.20924e-12
-7.14744e-15
6.20725e-12
-6.31053e-15
6.2046e-12
-5.37842e-15
6.20119e-12
-4.41706e-15