/*--------------------------------*- C++ -*----------------------------------*\
| =========                 |                                                 |
| \\      /  F ield         | OpenFOAM: The Open Source CFD Toolbox           |
|  \\    /   O peration     | Version:  2406                                  |
|   \\  /    A nd           | Website:  www.openfoam.com                      |
|    \\/     M anipulation  |                                                 |
\*---------------------------------------------------------------------------*/
FoamFile
{
    version     2.0;
    format      ascii;
    arch        "LSB;label=32;scalar=64";
    class       volVectorField;
    location    "97500";
    object      U;
}
// * * * * * * * * * * * * * * * * * * * * * * * * * * * * * * * * * * * * * //

dimensions      [0 1 -1 0 0 0 0];

internalField   nonuniform List<vector> 
14043
(
(1.77565e-10 1.06348e-07 1.27828e-31)
(2.52702e-10 1.05675e-07 7.65881e-28)
(1.44002e-10 1.0538e-07 1.52934e-27)
(1.77284e-10 1.05508e-07 5.25906e-32)
(1.42237e-10 1.05693e-07 4.61597e-32)
(1.09816e-10 1.05842e-07 -7.36925e-32)
(8.45744e-11 1.05956e-07 7.68366e-28)
(6.4886e-11 1.0604e-07 6.11927e-32)
(5.02472e-11 1.061e-07 -7.69317e-28)
(3.94996e-11 1.06143e-07 -3.16252e-32)
(3.16725e-11 1.06174e-07 7.6982e-28)
(2.60119e-11 1.06195e-07 5.32144e-33)
(2.19226e-11 1.0621e-07 7.70068e-28)
(1.89605e-11 1.06221e-07 7.70148e-28)
(1.67978e-11 1.06229e-07 -1.54039e-27)
(1.51963e-11 1.06235e-07 7.70232e-28)
(1.39854e-11 1.06239e-07 7.70264e-28)
(1.30438e-11 1.06242e-07 7.70287e-28)
(1.22865e-11 1.06245e-07 6.86638e-34)
(1.1654e-11 1.06247e-07 -7.70319e-28)
(1.11052e-11 1.06248e-07 7.7033e-28)
(1.06116e-11 1.0625e-07 1.54068e-27)
(1.0154e-11 1.06251e-07 -7.7035e-28)
(9.71922e-12 1.06252e-07 7.70358e-28)
(9.29833e-12 1.06253e-07 7.70366e-28)
(8.88547e-12 1.06254e-07 -7.70372e-28)
(8.47664e-12 1.06255e-07 7.70377e-28)
(8.06928e-12 1.06256e-07 -2.23745e-34)
(7.66174e-12 1.06256e-07 1.54078e-27)
(7.25293e-12 1.06257e-07 7.70393e-28)
(6.8423e-12 1.06258e-07 0)
(6.42948e-12 1.06258e-07 7.70401e-28)
(6.01425e-12 1.06259e-07 7.70404e-28)
(5.59669e-12 1.06259e-07 -7.70408e-28)
(5.17677e-12 1.0626e-07 7.7041e-28)
(4.75463e-12 1.0626e-07 -7.70413e-28)
(4.3304e-12 1.0626e-07 7.70415e-28)
(3.9042e-12 1.06261e-07 7.70418e-28)
(3.47629e-12 1.06261e-07 0)
(3.04681e-12 1.06261e-07 7.70421e-28)
(2.61591e-12 1.06261e-07 -5.70152e-35)
(2.18387e-12 1.06262e-07 -4.7291e-35)
(1.75083e-12 1.06262e-07 0)
(1.317e-12 1.06262e-07 7.70426e-28)
(8.82566e-13 1.06262e-07 7.70426e-28)
(4.47676e-13 1.06262e-07 -9.58995e-36)
(1.25993e-14 1.06262e-07 1.54085e-27)
(-4.22522e-13 1.06262e-07 7.70426e-28)
(-8.57549e-13 1.06262e-07 1.8217e-35)
(-1.29221e-12 1.06262e-07 -4.24597e-45)
(-1.72636e-12 1.06262e-07 7.70425e-28)
(-2.1598e-12 1.06262e-07 7.70424e-28)
(-2.59234e-12 1.06261e-07 7.70423e-28)
(-3.02383e-12 1.06261e-07 7.70421e-28)
(-3.45399e-12 1.06261e-07 7.7042e-28)
(-3.88267e-12 1.06261e-07 7.70418e-28)
(-4.30974e-12 1.0626e-07 7.70416e-28)
(-4.73492e-12 1.0626e-07 0)
(-5.15809e-12 1.0626e-07 7.70411e-28)
(-5.57908e-12 1.06259e-07 7.70408e-28)
(-5.99778e-12 1.06259e-07 -7.70405e-28)
(-6.41417e-12 1.06258e-07 1.5408e-27)
(-6.82818e-12 1.06258e-07 7.70397e-28)
(-7.24e-12 1.06257e-07 -1.89081e-34)
(-7.65e-12 1.06256e-07 7.70389e-28)
(-8.0587e-12 1.06256e-07 7.70383e-28)
(-8.46716e-12 1.06255e-07 -2.43712e-34)
(-8.87704e-12 1.06254e-07 7.70372e-28)
(-9.29089e-12 1.06253e-07 7.70365e-28)
(-9.71269e-12 1.06252e-07 -4.9038e-42)
(-1.01483e-11 1.06251e-07 7.70351e-28)
(-1.06066e-11 1.0625e-07 7.70341e-28)
(-1.11009e-11 1.06248e-07 -7.22285e-42)
(-1.16504e-11 1.06247e-07 5.64759e-34)
(-1.22835e-11 1.06245e-07 7.70306e-28)
(-1.30413e-11 1.06242e-07 1.54057e-27)
(-1.39833e-11 1.06239e-07 7.70263e-28)
(-1.51948e-11 1.06235e-07 7.70234e-28)
(-1.67968e-11 1.06229e-07 -7.70198e-28)
(-1.896e-11 1.06221e-07 2.71867e-33)
(-2.19225e-11 1.0621e-07 7.70072e-28)
(-2.60122e-11 1.06195e-07 7.69965e-28)
(-3.16732e-11 1.06174e-07 1.53965e-27)
(-3.95006e-11 1.06143e-07 7.69617e-28)
(-5.02485e-11 1.061e-07 7.69317e-28)
(-6.48874e-11 1.0604e-07 7.68936e-28)
(-8.45759e-11 1.05956e-07 7.68394e-28)
(-1.09818e-10 1.05842e-07 7.67667e-28)
(-1.42238e-10 1.05693e-07 1.53346e-27)
(-1.77286e-10 1.05509e-07 7.65618e-28)
(-1.44003e-10 1.0538e-07 7.64665e-28)
(-2.52702e-10 1.05675e-07 1.53144e-27)
(-1.77566e-10 1.06348e-07 7.80763e-28)
(2.68195e-10 1.12772e-07 4.62548e-32)
(5.1717e-10 1.08313e-07 1.33593e-28)
(2.83293e-10 1.0819e-07 1.3964e-28)
(3.76596e-10 1.0834e-07 1.44492e-32)
(3.00409e-10 1.08523e-07 -1.29932e-32)
(2.43337e-10 1.08664e-07 -7.44808e-33)
(1.93793e-10 1.08769e-07 5.69766e-30)
(1.53521e-10 1.08846e-07 1.10968e-32)
(1.22772e-10 1.08901e-07 -1.34096e-28)
(9.95744e-11 1.08941e-07 -1.28405e-28)
(8.2268e-11 1.08969e-07 1.34106e-28)
(6.94597e-11 1.08988e-07 5.03882e-33)
(5.99905e-11 1.09002e-07 1.34114e-28)
(5.29691e-11 1.09012e-07 5.70565e-30)
(4.77169e-11 1.09019e-07 -1.39825e-28)
(4.37292e-11 1.09025e-07 1.34117e-28)
(4.06358e-11 1.09029e-07 1.34116e-28)
(3.81686e-11 1.09032e-07 2.62524e-28)
(3.61353e-11 1.09034e-07 2.56817e-28)
(3.43993e-11 1.09036e-07 -5.70816e-30)
(3.28644e-11 1.09038e-07 5.70944e-30)
(3.14632e-11 1.09039e-07 1.39827e-28)
(3.01489e-11 1.0904e-07 -1.34119e-28)
(2.88893e-11 1.09042e-07 5.70929e-30)
(2.76622e-11 1.09043e-07 -1.22702e-28)
(2.64528e-11 1.09043e-07 -1.3412e-28)
(2.5251e-11 1.09044e-07 1.3412e-28)
(2.40502e-11 1.09045e-07 1.28411e-28)
(2.28462e-11 1.09046e-07 1.14181e-29)
(2.16364e-11 1.09046e-07 1.3412e-28)
(2.04192e-11 1.09047e-07 1.28411e-28)
(1.91938e-11 1.09048e-07 5.70915e-30)
(1.79599e-11 1.09048e-07 1.3412e-28)
(1.67177e-11 1.09049e-07 -5.70895e-30)
(1.54674e-11 1.09049e-07 5.70895e-30)
(1.42094e-11 1.09049e-07 -5.70896e-30)
(1.29442e-11 1.0905e-07 5.7091e-30)
(1.16725e-11 1.0905e-07 1.34121e-28)
(1.03948e-11 1.0905e-07 2.56824e-28)
(9.11184e-12 1.09051e-07 5.70907e-30)
(7.8242e-12 1.09051e-07 -1.62325e-34)
(6.53262e-12 1.09051e-07 -6.77124e-35)
(5.23771e-12 1.09051e-07 5.42957e-35)
(3.94013e-12 1.09051e-07 1.34121e-28)
(2.64053e-12 1.09051e-07 1.34121e-28)
(1.33951e-12 1.09051e-07 1.28412e-28)
(3.77592e-14 1.09051e-07 1.1418e-29)
(-1.26412e-12 1.09051e-07 1.34121e-28)
(-2.56555e-12 1.09051e-07 1.28412e-28)
(-3.86583e-12 1.09051e-07 1.28412e-28)
(-5.16436e-12 1.09051e-07 5.70887e-30)
(-6.46049e-12 1.09051e-07 5.70898e-30)
(-7.75356e-12 1.09051e-07 5.70897e-30)
(-9.04298e-12 1.09051e-07 1.34121e-28)
(-1.0328e-11 1.0905e-07 5.70897e-30)
(-1.1608e-11 1.0905e-07 5.70872e-30)
(-1.28823e-11 1.0905e-07 1.34121e-28)
(-1.41503e-11 1.09049e-07 -5.91768e-45)
(-1.54113e-11 1.09049e-07 1.34121e-28)
(-1.66649e-11 1.09049e-07 5.70931e-30)
(-1.79105e-11 1.09048e-07 1.22702e-28)
(-1.91478e-11 1.09048e-07 1.39829e-28)
(-2.03767e-11 1.09047e-07 1.34121e-28)
(-2.15975e-11 1.09046e-07 1.28411e-28)
(-2.28109e-11 1.09046e-07 5.70893e-30)
(-2.40183e-11 1.09045e-07 2.62531e-28)
(-2.52224e-11 1.09044e-07 -2.98585e-34)
(-2.64273e-11 1.09043e-07 5.70891e-30)
(-2.76397e-11 1.09043e-07 5.7089e-30)
(-2.88695e-11 1.09042e-07 0)
(-3.01316e-11 1.0904e-07 1.34119e-28)
(-3.14481e-11 1.09039e-07 1.34119e-28)
(-3.28514e-11 1.09038e-07 5.80859e-34)
(-3.43882e-11 1.09036e-07 2.93297e-45)
(-3.61259e-11 1.09034e-07 1.34117e-28)
(-3.81608e-11 1.09032e-07 1.14176e-29)
(-4.06296e-11 1.09029e-07 1.34116e-28)
(-4.37245e-11 1.09025e-07 1.34117e-28)
(-4.77136e-11 1.0902e-07 -1.34114e-28)
(-5.29672e-11 1.09012e-07 -2.94097e-33)
(-5.999e-11 1.09002e-07 1.3411e-28)
(-6.94605e-11 1.08988e-07 -1.22696e-28)
(-8.22699e-11 1.08969e-07 1.14232e-29)
(-9.95772e-11 1.08941e-07 5.71647e-30)
(-1.22776e-10 1.08901e-07 1.34096e-28)
(-1.53525e-10 1.08846e-07 1.34111e-28)
(-1.93797e-10 1.08769e-07 5.70904e-30)
(-2.43341e-10 1.08664e-07 5.70259e-30)
(-3.00413e-10 1.08523e-07 1.14242e-29)
(-3.76599e-10 1.0834e-07 1.34226e-28)
(-2.83296e-10 1.0819e-07 2.62176e-28)
(-5.17171e-10 1.08313e-07 1.13996e-29)
(-2.68196e-10 1.12772e-07 1.53455e-28)
(4.0307e-10 9.43989e-08 6.74792e-32)
(6.5454e-10 9.34337e-08 -8.30343e-29)
(4.58657e-10 9.29036e-08 1.65965e-28)
(4.76206e-10 9.30748e-08 6.02598e-41)
(3.78943e-10 9.32255e-08 8.13217e-29)
(3.10918e-10 9.3335e-08 8.15568e-29)
(2.53442e-10 9.34142e-08 8.53221e-29)
(2.06218e-10 9.3471e-08 7.20836e-33)
(1.69635e-10 9.35113e-08 8.18867e-29)
(1.4159e-10 9.35397e-08 3.63844e-30)
(1.20287e-10 9.35597e-08 4.16754e-33)
(1.04218e-10 9.35737e-08 8.20202e-29)
(9.20911e-11 9.35836e-08 1.64075e-28)
(8.28962e-11 9.35906e-08 1.67753e-28)
(7.58499e-11 9.35956e-08 -8.57115e-29)
(7.03595e-11 9.35994e-08 8.2071e-29)
(6.59829e-11 9.36022e-08 8.2078e-29)
(6.23951e-11 9.36045e-08 7.84333e-29)
(5.93593e-11 9.36063e-08 -7.29941e-30)
(5.67048e-11 9.36078e-08 -1.67828e-28)
(5.43094e-11 9.3609e-08 8.57403e-29)
(5.20864e-11 9.36102e-08 8.57431e-29)
(4.9975e-11 9.36112e-08 -1.64191e-28)
(4.79325e-11 9.36121e-08 8.57468e-29)
(4.59296e-11 9.36129e-08 8.93988e-29)
(4.39459e-11 9.36137e-08 -8.20998e-29)
(4.1968e-11 9.36144e-08 8.21019e-29)
(3.99869e-11 9.3615e-08 -1.67856e-28)
(3.79969e-11 9.36156e-08 8.94044e-29)
(3.59943e-11 9.36162e-08 8.21054e-29)
(3.39772e-11 9.36167e-08 -3.65046e-30)
(3.19448e-11 9.36171e-08 8.57571e-29)
(2.98968e-11 9.36176e-08 8.21077e-29)
(2.78335e-11 9.3618e-08 -3.65053e-30)
(2.57556e-11 9.36183e-08 8.57594e-29)
(2.3664e-11 9.36186e-08 -1.67869e-28)
(2.15595e-11 9.36189e-08 8.57605e-29)
(1.94433e-11 9.36192e-08 2.00652e-34)
(1.73166e-11 9.36194e-08 -8.9412e-29)
(1.51805e-11 9.36196e-08 8.57617e-29)
(1.30361e-11 9.36198e-08 8.21115e-29)
(1.08847e-11 9.362e-08 -3.28447e-28)
(8.72743e-12 9.36201e-08 4.54413e-35)
(6.56542e-12 9.36202e-08 -1.64224e-28)
(4.39983e-12 9.36202e-08 8.21123e-29)
(2.23178e-12 9.36203e-08 -3.6506e-30)
(6.23985e-14 9.36203e-08 -7.48112e-29)
(-2.1072e-12 9.36203e-08 8.21123e-29)
(-4.27592e-12 9.36202e-08 7.84618e-29)
(-6.44263e-12 9.36202e-08 -2.49987e-28)
(-8.6062e-12 9.36201e-08 8.57626e-29)
(-1.07655e-11 9.362e-08 3.65055e-30)
(-1.29193e-11 9.36198e-08 8.5762e-29)
(-1.50666e-11 9.36196e-08 8.21113e-29)
(-1.72061e-11 9.36194e-08 -7.84603e-29)
(-1.93366e-11 9.36192e-08 1.67871e-28)
(-2.1457e-11 9.3619e-08 -1.66008e-42)
(-2.3566e-11 9.36187e-08 -8.21095e-29)
(-2.56627e-11 9.36183e-08 8.21091e-29)
(-2.77458e-11 9.3618e-08 -2.42675e-28)
(-2.98146e-11 9.36176e-08 -8.94086e-29)
(-3.18683e-11 9.36172e-08 1.67864e-28)
(-3.39065e-11 9.36167e-08 -8.2106e-29)
(-3.59293e-11 9.36162e-08 -3.65025e-30)
(-3.79377e-11 9.36156e-08 8.57542e-29)
(-3.99334e-11 9.3615e-08 -1.67856e-28)
(-4.19199e-11 9.36144e-08 8.21019e-29)
(-4.3903e-11 9.36137e-08 3.65028e-30)
(-4.58915e-11 9.36129e-08 8.57485e-29)
(-4.7899e-11 9.36121e-08 8.20969e-29)
(-4.99456e-11 9.36112e-08 0)
(-5.20608e-11 9.36102e-08 8.20934e-29)
(-5.42871e-11 9.36091e-08 8.20916e-29)
(-5.66857e-11 9.36078e-08 -8.20885e-29)
(-5.93432e-11 9.36063e-08 8.20861e-29)
(-6.23817e-11 9.36045e-08 -7.47832e-29)
(-6.59721e-11 9.36023e-08 8.20749e-29)
(-7.03511e-11 9.35994e-08 8.20724e-29)
(-7.5844e-11 9.35957e-08 5.86142e-45)
(-8.28927e-11 9.35906e-08 8.20502e-29)
(-9.20897e-11 9.35836e-08 8.20432e-29)
(-1.04219e-10 9.35737e-08 -7.47207e-29)
(-1.20289e-10 9.35597e-08 1.71265e-28)
(-1.41594e-10 9.35398e-08 -7.83072e-29)
(-1.6964e-10 9.35113e-08 1.63764e-28)
(-2.06224e-10 9.3471e-08 8.18079e-29)
(-2.53448e-10 9.34142e-08 -7.80585e-29)
(-3.10924e-10 9.33351e-08 8.51662e-29)
(-3.78949e-10 9.32255e-08 1.69977e-28)
(-4.76211e-10 9.30748e-08 -8.11283e-29)
(-4.5866e-10 9.29036e-08 1.5847e-28)
(-6.54542e-10 9.34337e-08 -7.5914e-29)
(-4.03071e-10 9.43989e-08 8.85187e-29)
(4.69366e-10 9.49462e-08 0)
(9.66674e-10 9.21557e-08 -2.31945e-29)
(6.11319e-10 9.23785e-08 1.09194e-30)
(5.18664e-10 9.24841e-08 0)
(4.13057e-10 9.26303e-08 4.43062e-29)
(3.3833e-10 9.27355e-08 2.26839e-29)
(2.80904e-10 9.281e-08 -2.1749e-29)
(2.34067e-10 9.28627e-08 2.17896e-29)
(1.97746e-10 9.28996e-08 2.27966e-29)
(1.69669e-10 9.29253e-08 -9.71475e-31)
(1.48052e-10 9.2943e-08 -2.1874e-29)
(1.31472e-10 9.29553e-08 9.70729e-31)
(1.18711e-10 9.29639e-08 4.57425e-29)
(1.08815e-10 9.297e-08 2.28832e-29)
(1.01038e-10 9.29744e-08 -1.10629e-45)
(9.48096e-11 9.29776e-08 2.28908e-29)
(8.96988e-11 9.29801e-08 -2.09466e-29)
(8.53849e-11 9.29821e-08 4.57981e-29)
(8.16313e-11 9.29837e-08 2.38775e-29)
(7.82653e-11 9.29851e-08 2.09541e-29)
(7.51615e-11 9.29863e-08 2.19302e-29)
(7.22302e-11 9.29874e-08 5.32866e-34)
(6.94074e-11 9.29884e-08 -2.38842e-29)
(6.66482e-11 9.29893e-08 -2.19356e-29)
(6.39212e-11 9.29902e-08 -2.29114e-29)
(6.12049e-11 9.29909e-08 -9.75298e-31)
(5.84849e-11 9.29916e-08 9.75498e-31)
(5.57515e-11 9.29923e-08 -2.29146e-29)
(5.2999e-11 9.29929e-08 -2.29157e-29)
(5.02237e-11 9.29935e-08 2.29161e-29)
(4.74241e-11 9.2994e-08 9.75472e-31)
(4.45995e-11 9.29945e-08 -2.19419e-29)
(4.17503e-11 9.29949e-08 2.29179e-29)
(3.88773e-11 9.29953e-08 2.29184e-29)
(3.59818e-11 9.29957e-08 2.02432e-34)
(3.30652e-11 9.2996e-08 -2.29193e-29)
(3.01292e-11 9.29963e-08 2.1944e-29)
(2.71754e-11 9.29966e-08 7.8571e-35)
(2.42057e-11 9.29969e-08 2.29202e-29)
(2.12218e-11 9.29971e-08 -2.19449e-29)
(1.82255e-11 9.29972e-08 9.75801e-31)
(1.52186e-11 9.29974e-08 -4.77931e-29)
(1.2203e-11 9.29975e-08 -2.19454e-29)
(9.18019e-12 9.29976e-08 -2.38968e-29)
(6.15207e-12 9.29977e-08 2.29212e-29)
(3.1203e-12 9.29977e-08 4.48669e-29)
(8.65285e-14 9.29977e-08 -6.87639e-29)
(-2.94755e-12 9.29977e-08 9.75688e-31)
(-5.98024e-12 9.29977e-08 4.58424e-29)
(-9.0099e-12 9.29976e-08 -1.95134e-30)
(-1.20348e-11 9.29975e-08 3.48959e-35)
(-1.50532e-11 9.29974e-08 -2.29209e-29)
(-1.80635e-11 9.29973e-08 5.23014e-35)
(-2.10637e-11 9.29971e-08 9.75509e-31)
(-2.40522e-11 9.29969e-08 -2.38958e-29)
(-2.70272e-11 9.29966e-08 9.75763e-31)
(-2.99867e-11 9.29964e-08 2.1944e-29)
(-3.2929e-11 9.29961e-08 -2.29192e-29)
(-3.58524e-11 9.29957e-08 2.29187e-29)
(-3.87551e-11 9.29954e-08 -2.58451e-29)
(-4.16357e-11 9.2995e-08 4.48607e-29)
(-4.44926e-11 9.29945e-08 2.29173e-29)
(-4.73251e-11 9.2994e-08 -2.29168e-29)
(-5.01327e-11 9.29935e-08 2.29163e-29)
(-5.29158e-11 9.29929e-08 2.19397e-29)
(-5.56761e-11 9.29923e-08 -9.75378e-31)
(-5.84169e-11 9.29917e-08 2.29138e-29)
(-6.11441e-11 9.2991e-08 -2.29127e-29)
(-6.38671e-11 9.29902e-08 2.19365e-29)
(-6.66004e-11 9.29894e-08 4.48454e-29)
(-6.93653e-11 9.29884e-08 -2.20347e-45)
(-7.21934e-11 9.29875e-08 9.75347e-31)
(-7.51295e-11 9.29864e-08 2.29056e-29)
(-7.82377e-11 9.29852e-08 -2.2904e-29)
(-8.16079e-11 9.29838e-08 9.74348e-31)
(-8.53653e-11 9.29821e-08 -4.67728e-29)
(-8.96829e-11 9.29801e-08 2.28974e-29)
(-9.47973e-11 9.29776e-08 2.28918e-29)
(-1.01029e-10 9.29744e-08 -2.19125e-29)
(-1.0881e-10 9.297e-08 4.47861e-29)
(-1.18709e-10 9.29639e-08 4.4765e-29)
(-1.31473e-10 9.29553e-08 -6.85787e-29)
(-1.48054e-10 9.2943e-08 2.1874e-29)
(-1.69674e-10 9.29253e-08 -4.56434e-29)
(-1.97752e-10 9.28996e-08 2.37669e-29)
(-2.34075e-10 9.28628e-08 2.2762e-29)
(-2.80912e-10 9.281e-08 -4.5432e-29)
(-3.38337e-10 9.27355e-08 -2.17346e-29)
(-4.13064e-10 9.26303e-08 7.84593e-32)
(-5.1867e-10 9.24841e-08 2.07112e-29)
(-6.11323e-10 9.23785e-08 6.86989e-29)
(-9.66677e-10 9.21558e-08 -4.74215e-29)
(-4.69367e-10 9.49462e-08 2.73402e-29)
(5.20855e-10 9.31517e-08 -4.18016e-30)
(1.01115e-09 9.30725e-08 3.26201e-30)
(5.04549e-10 9.27023e-08 -3.25509e-30)
(4.83884e-10 9.28382e-08 -3.5859e-30)
(3.78659e-10 9.29655e-08 -3.90136e-30)
(3.20688e-10 9.30634e-08 -1.76601e-32)
(2.75506e-10 9.31326e-08 7.63967e-30)
(2.38683e-10 9.3181e-08 -1.65136e-31)
(2.09472e-10 9.32142e-08 -2.06179e-34)
(1.86285e-10 9.32368e-08 -1.62498e-31)
(1.67849e-10 9.32521e-08 1.64516e-31)
(1.53219e-10 9.32625e-08 3.81503e-30)
(1.41543e-10 9.32696e-08 7.2936e-30)
(1.32138e-10 9.32746e-08 2.36413e-33)
(1.24452e-10 9.32781e-08 -3.63622e-30)
(1.18049e-10 9.32808e-08 7.26533e-30)
(1.12589e-10 9.32828e-08 3.95183e-30)
(1.07813e-10 9.32845e-08 -3.62699e-30)
(1.03521e-10 9.32859e-08 -3.46327e-30)
(9.95667e-11 9.32871e-08 -1.11904e-29)
(9.5839e-11 9.32882e-08 3.46003e-30)
(9.22576e-11 9.32892e-08 -3.61931e-30)
(8.87643e-11 9.32901e-08 -1.1016e-29)
(8.53172e-11 9.3291e-08 7.39541e-30)
(8.18868e-11 9.32918e-08 -3.61651e-30)
(7.84528e-11 9.32926e-08 -7.39169e-30)
(7.50016e-11 9.32933e-08 7.39039e-30)
(7.15241e-11 9.32939e-08 -1.08422e-29)
(6.80151e-11 9.32945e-08 -3.61358e-30)
(6.44717e-11 9.32951e-08 7.2257e-30)
(6.08926e-11 9.32956e-08 1.60685e-31)
(5.72781e-11 9.32961e-08 -3.45131e-30)
(5.3629e-11 9.32966e-08 1.0834e-29)
(4.9947e-11 9.3297e-08 -3.61097e-30)
(4.62338e-11 9.32974e-08 3.61077e-30)
(4.24918e-11 9.32977e-08 -1.0831e-29)
(3.87232e-11 9.3298e-08 -3.77058e-30)
(3.49304e-11 9.32983e-08 1.23927e-34)
(3.11159e-11 9.32986e-08 0)
(2.72822e-11 9.32988e-08 1.09886e-29)
(2.34317e-11 9.3299e-08 1.09881e-29)
(1.95669e-11 9.32991e-08 -1.11481e-29)
(1.569e-11 9.32992e-08 3.76941e-30)
(1.18036e-11 9.32993e-08 -7.37822e-30)
(7.91001e-12 9.32994e-08 1.08264e-29)
(4.01141e-12 9.32995e-08 3.44836e-30)
(1.10165e-13 9.32995e-08 -7.21754e-30)
(-3.79147e-12 9.32995e-08 7.37803e-30)
(-7.69123e-12 9.32994e-08 7.21765e-30)
(-1.15868e-11 9.32994e-08 -3.92979e-30)
(-1.54759e-11 9.32993e-08 1.08269e-29)
(-1.93562e-11 9.32991e-08 0)
(-2.32253e-11 9.3299e-08 3.6092e-30)
(-2.70809e-11 9.32988e-08 7.37915e-30)
(-3.09204e-11 9.32986e-08 -3.76997e-30)
(-3.47414e-11 9.32983e-08 7.38015e-30)
(-3.85414e-11 9.32981e-08 3.44952e-30)
(-4.23179e-11 9.32978e-08 -5.69421e-46)
(-4.60685e-11 9.32974e-08 7.2213e-30)
(-4.97907e-11 9.3297e-08 -1.13144e-29)
(-5.34822e-11 9.32966e-08 3.4508e-30)
(-5.7141e-11 9.32962e-08 7.22341e-30)
(-6.07655e-11 9.32957e-08 -3.61227e-30)
(-6.43546e-11 9.32952e-08 7.22578e-30)
(-6.7908e-11 9.32946e-08 7.06603e-30)
(-7.14267e-11 9.3294e-08 -7.38882e-30)
(-7.49136e-11 9.32933e-08 7.22947e-30)
(-7.83739e-11 9.32926e-08 3.61563e-30)
(-8.18164e-11 9.32918e-08 7.07223e-30)
(-8.52547e-11 9.3291e-08 7.07364e-30)
(-8.87092e-11 9.32902e-08 -2.8173e-34)
(-9.22093e-11 9.32892e-08 7.40037e-30)
(-9.57969e-11 9.32882e-08 7.24202e-30)
(-9.95303e-11 9.32871e-08 -2.58349e-34)
(-1.0349e-10 9.32859e-08 1.10343e-29)
(-1.07787e-10 9.32845e-08 -3.78735e-30)
(-1.12568e-10 9.32828e-08 7.25884e-30)
(-1.18032e-10 9.32808e-08 7.26384e-30)
(-1.24439e-10 9.32782e-08 3.79882e-30)
(-1.32129e-10 9.32746e-08 7.12283e-30)
(-1.41538e-10 9.32697e-08 7.12861e-30)
(-1.53218e-10 9.32625e-08 -7.31128e-30)
(-1.67851e-10 9.32521e-08 7.17069e-30)
(-1.8629e-10 9.32368e-08 -1.07791e-33)
(-2.09479e-10 9.32142e-08 3.85964e-30)
(-2.38691e-10 9.3181e-08 7.43492e-30)
(-2.75515e-10 9.31326e-08 -7.45803e-30)
(-3.20697e-10 9.30634e-08 7.62406e-30)
(-3.78667e-10 9.29655e-08 7.43105e-30)
(-4.8389e-10 9.28382e-08 -7.63635e-30)
(-5.04554e-10 9.27023e-08 3.6624e-30)
(-1.01115e-09 9.30725e-08 -6.68519e-30)
(-5.20856e-10 9.31517e-08 8.43363e-30)
(3.25356e-10 9.59682e-08 1.48326e-31)
(7.12973e-10 9.4322e-08 7.28075e-30)
(4.75059e-10 9.44088e-08 3.81252e-30)
(3.96619e-10 9.44828e-08 3.392e-30)
(3.29984e-10 9.45994e-08 -3.19946e-30)
(2.87304e-10 9.46906e-08 -3.89436e-32)
(2.57826e-10 9.47568e-08 -3.30635e-30)
(2.33212e-10 9.48032e-08 -3.31963e-30)
(2.13128e-10 9.4835e-08 -1.87101e-33)
(1.96535e-10 9.48564e-08 -1.43066e-31)
(1.82689e-10 9.48708e-08 6.6069e-30)
(1.71141e-10 9.48804e-08 3.24334e-30)
(1.61441e-10 9.48868e-08 -2.89888e-31)
(1.53219e-10 9.48913e-08 -3.2587e-30)
(1.46155e-10 9.48944e-08 3.40956e-30)
(1.39982e-10 9.48968e-08 -2.90094e-31)
(1.3448e-10 9.48986e-08 3.4154e-30)
(1.29471e-10 9.49001e-08 -6.40242e-30)
(1.24816e-10 9.49014e-08 2.91295e-31)
(1.20404e-10 9.49026e-08 -6.41005e-30)
(1.16152e-10 9.49036e-08 -6.85096e-30)
(1.11996e-10 9.49046e-08 -3.13535e-30)
(1.07891e-10 9.49056e-08 -2.99041e-30)
(1.03801e-10 9.49065e-08 -1.4598e-31)
(9.97031e-11 9.49073e-08 1.45929e-31)
(9.55796e-11 9.49081e-08 -3.13927e-30)
(9.14197e-11 9.49088e-08 -1.46101e-31)
(8.72164e-11 9.49095e-08 3.72528e-30)
(8.29658e-11 9.49102e-08 -3.14137e-30)
(7.86664e-11 9.49108e-08 -3.5806e-30)
(7.4318e-11 9.49114e-08 1.46073e-31)
(6.99219e-11 9.49119e-08 2.92622e-31)
(6.54799e-11 9.49124e-08 -3.72854e-30)
(6.09945e-11 9.49128e-08 -3.144e-30)
(5.64685e-11 9.49132e-08 -3.43683e-30)
(5.19049e-11 9.49136e-08 3.72969e-30)
(4.73069e-11 9.49139e-08 -3.29107e-30)
(4.26777e-11 9.49142e-08 8.68232e-35)
(3.80205e-11 9.49145e-08 8.0204e-35)
(3.33385e-11 9.49147e-08 2.99922e-30)
(2.86349e-11 9.49149e-08 -2.9281e-31)
(2.39129e-11 9.4915e-08 -6.438e-30)
(1.91756e-11 9.49152e-08 3.29227e-30)
(1.4426e-11 9.49153e-08 1.46407e-31)
(9.66705e-12 9.49154e-08 -3.73153e-30)
(4.90181e-12 9.49154e-08 -6.87768e-30)
(1.3318e-13 9.49154e-08 3.58522e-30)
(-4.63592e-12 9.49154e-08 -1.46381e-31)
(-9.40255e-12 9.49154e-08 -3.58516e-30)
(-1.41638e-11 9.49153e-08 -3.43876e-30)
(-1.89167e-11 9.49152e-08 -3.73138e-30)
(-2.36582e-11 9.49151e-08 5.13832e-35)
(-2.83853e-11 9.49149e-08 -3.4384e-30)
(-3.30948e-11 9.49147e-08 -1.4635e-31)
(-3.77838e-11 9.49145e-08 3.85998e-35)
(-4.24488e-11 9.49142e-08 -3.43784e-30)
(-4.70866e-11 9.49139e-08 -3.58385e-30)
(-5.16941e-11 9.49136e-08 1.7954e-46)
(-5.62678e-11 9.49132e-08 -3.58308e-30)
(-6.08046e-11 9.49128e-08 -3.29013e-30)
(-6.53013e-11 9.49124e-08 -3.58239e-30)
(-6.97549e-11 9.49119e-08 -3.58175e-30)
(-7.41629e-11 9.49114e-08 -3.14261e-30)
(-7.85232e-11 9.49108e-08 2.9958e-30)
(-8.28346e-11 9.49102e-08 -3.72608e-30)
(-8.70968e-11 9.49096e-08 1.46134e-31)
(-9.13114e-11 9.49089e-08 -3.57853e-30)
(-9.54822e-11 9.49081e-08 -1.46065e-31)
(-9.96159e-11 9.49073e-08 -3.72261e-30)
(-1.03724e-10 9.49065e-08 -7.00496e-30)
(-1.07822e-10 9.49056e-08 3.2824e-30)
(-1.11936e-10 9.49047e-08 -1.45926e-31)
(-1.16099e-10 9.49037e-08 -3.57121e-30)
(-1.20358e-10 9.49026e-08 -1.11054e-34)
(-1.24777e-10 9.49014e-08 -2.91296e-31)
(-1.29438e-10 9.49001e-08 2.34684e-34)
(-1.34453e-10 9.48986e-08 -3.56214e-30)
(-1.3996e-10 9.48968e-08 -3.55766e-30)
(-1.46139e-10 9.48945e-08 3.26333e-30)
(-1.53207e-10 9.48913e-08 -6.95122e-30)
(-1.61434e-10 9.48869e-08 -6.93443e-30)
(-1.71139e-10 9.48804e-08 3.53088e-30)
(-1.8269e-10 9.48708e-08 -6.89475e-30)
(-1.96539e-10 9.48564e-08 -4.97542e-34)
(-2.13135e-10 9.4835e-08 1.87052e-33)
(-2.3322e-10 9.48032e-08 -3.46614e-30)
(-2.57835e-10 9.47568e-08 3.44709e-30)
(-2.87314e-10 9.46906e-08 3.05245e-30)
(-3.29993e-10 9.45994e-08 -3.52046e-31)
(-3.96627e-10 9.44828e-08 -3.30607e-30)
(-4.75064e-10 9.44088e-08 -6.6876e-30)
(-7.12976e-10 9.4322e-08 -3.38796e-30)
(-3.25358e-10 9.59682e-08 -3.36899e-30)
(2.72377e-10 9.36344e-08 -7.4463e-30)
(5.80138e-10 9.34023e-08 1.40298e-29)
(3.08633e-10 9.32955e-08 -1.30145e-29)
(3.08842e-10 9.33774e-08 -1.26576e-29)
(2.65801e-10 9.3476e-08 -1.28644e-29)
(2.45712e-10 9.3561e-08 -2.0775e-32)
(2.32941e-10 9.36232e-08 2.03151e-47)
(2.21792e-10 9.36671e-08 -6.27409e-30)
(2.11867e-10 9.36971e-08 -6.29681e-30)
(2.02776e-10 9.37171e-08 2.82377e-31)
(1.94315e-10 9.37303e-08 2.81154e-31)
(1.86519e-10 9.37389e-08 6.61597e-30)
(1.79349e-10 9.37446e-08 5.64031e-31)
(1.72757e-10 9.37485e-08 -6.6315e-30)
(1.6667e-10 9.37511e-08 -6.35477e-30)
(1.61004e-10 9.37531e-08 5.6549e-31)
(1.55674e-10 9.37546e-08 6.36239e-30)
(1.50599e-10 9.37559e-08 -1.99444e-29)
(1.45705e-10 9.37571e-08 -1.33011e-29)
(1.40932e-10 9.37581e-08 -1.35884e-29)
(1.36229e-10 9.37591e-08 7.99613e-35)
(1.31555e-10 9.37601e-08 -6.93929e-30)
(1.2688e-10 9.3761e-08 -1.35978e-29)
(1.22181e-10 9.37619e-08 6.65855e-30)
(1.1744e-10 9.37627e-08 -6.65945e-30)
(1.12647e-10 9.37635e-08 -1.33208e-29)
(1.07794e-10 9.37642e-08 6.66124e-30)
(1.02877e-10 9.37649e-08 -6.94558e-30)
(9.78939e-11 9.37656e-08 -6.9463e-30)
(9.28459e-11 9.37662e-08 6.66333e-30)
(8.77341e-11 9.37668e-08 -2.83654e-31)
(8.2561e-11 9.37673e-08 -1.33288e-29)
(7.73296e-11 9.37678e-08 1.33298e-29)
(7.20436e-11 9.37683e-08 -1.97122e-29)
(6.67067e-11 9.37687e-08 6.38195e-30)
(6.1323e-11 9.37691e-08 -6.94978e-30)
(5.58965e-11 9.37694e-08 -1.30489e-29)
(5.04312e-11 9.37697e-08 2.11644e-35)
(4.49314e-11 9.377e-08 1.27661e-29)
(3.94009e-11 9.37702e-08 1.36178e-29)
(3.38438e-11 9.37704e-08 1.33344e-29)
(2.82639e-11 9.37706e-08 -7.23496e-30)
(2.26651e-11 9.37707e-08 2.83779e-31)
(1.70512e-11 9.37709e-08 -6.66754e-30)
(1.14259e-11 9.37709e-08 1.33352e-29)
(5.79276e-12 9.3771e-08 0)
(1.55499e-13 9.3771e-08 6.10004e-30)
(-5.4823e-12 9.3771e-08 6.66766e-30)
(-1.1117e-11 9.37709e-08 2.83813e-31)
(-1.67451e-11 9.37709e-08 -8.80734e-36)
(-2.23627e-11 9.37708e-08 1.33349e-29)
(-2.79663e-11 9.37706e-08 0)
(-3.35521e-11 9.37705e-08 6.38341e-30)
(-3.91161e-11 9.37703e-08 6.66703e-30)
(-4.46546e-11 9.377e-08 0)
(-5.01634e-11 9.37698e-08 6.38282e-30)
(-5.56386e-11 9.37694e-08 6.66632e-30)
(-6.1076e-11 9.37691e-08 0)
(-6.64714e-11 9.37687e-08 6.66568e-30)
(-7.18207e-11 9.37683e-08 -6.66529e-30)
(-7.71197e-11 9.37679e-08 2.83696e-31)
(-8.23645e-11 9.37674e-08 6.66441e-30)
(-8.75513e-11 9.37668e-08 -5.67317e-31)
(-9.26769e-11 9.37663e-08 1.999e-29)
(-9.77386e-11 9.37656e-08 6.94635e-30)
(-1.02735e-10 9.3765e-08 -2.83543e-31)
(-1.07665e-10 9.37643e-08 6.66125e-30)
(-1.12531e-10 9.37635e-08 6.66035e-30)
(-1.17336e-10 9.37627e-08 6.94293e-30)
(-1.22088e-10 9.37619e-08 1.30334e-29)
(-1.26798e-10 9.3761e-08 6.65723e-30)
(-1.31483e-10 9.37601e-08 6.65598e-30)
(-1.36165e-10 9.37592e-08 6.65438e-30)
(-1.40877e-10 9.37582e-08 6.36944e-30)
(-1.45657e-10 9.37571e-08 1.33011e-29)
(-1.50558e-10 9.3756e-08 6.36514e-30)
(-1.55641e-10 9.37547e-08 6.64519e-30)
(-1.60977e-10 9.37531e-08 6.64169e-30)
(-1.66649e-10 9.37512e-08 6.63717e-30)
(-1.72742e-10 9.37485e-08 6.6315e-30)
(-1.7934e-10 9.37447e-08 6.62468e-30)
(-1.86515e-10 9.3739e-08 6.05274e-30)
(-1.94314e-10 9.37303e-08 1.29291e-29)
(-2.02779e-10 9.37171e-08 -1.78147e-33)
(-2.11873e-10 9.36971e-08 -6.29681e-30)
(-2.21801e-10 9.36671e-08 6.56754e-30)
(-2.32951e-10 9.36232e-08 -2.9066e-31)
(-2.45722e-10 9.3561e-08 6.79544e-30)
(-2.6581e-10 9.3476e-08 6.86792e-30)
(-3.0885e-10 9.33774e-08 -2.57728e-31)
(-3.08639e-10 9.32955e-08 -1.95071e-31)
(-5.80142e-10 9.34023e-08 -5.84604e-31)
(-2.72378e-10 9.36344e-08 7.4031e-30)
(1.38615e-10 9.44964e-08 -1.09312e-32)
(3.3464e-10 9.3844e-08 -1.70895e-29)
(2.28654e-10 9.38475e-08 -5.58484e-30)
(2.29342e-10 9.39116e-08 -5.77264e-30)
(2.13683e-10 9.4006e-08 -2.01861e-31)
(2.10049e-10 9.40877e-08 -5.22633e-30)
(2.10895e-10 9.41494e-08 -5.24135e-30)
(2.11048e-10 9.41936e-08 5.00313e-30)
(2.10018e-10 9.42241e-08 -5.48048e-30)
(2.07776e-10 9.42445e-08 5.02812e-30)
(2.0444e-10 9.4258e-08 -5.50164e-30)
(2.00373e-10 9.42669e-08 -5.27933e-30)
(1.95836e-10 9.42727e-08 -1.10421e-29)
(1.91035e-10 9.42765e-08 1.05836e-29)
(1.86102e-10 9.42792e-08 -2.35837e-31)
(1.81117e-10 9.42811e-08 -4.71022e-31)
(1.76114e-10 9.42826e-08 1.0844e-29)
(1.71106e-10 9.42839e-08 1.06133e-29)
(1.66088e-10 9.42851e-08 2.70987e-34)
(1.61048e-10 9.42861e-08 5.5471e-30)
(1.5597e-10 9.42871e-08 2.46749e-34)
(1.5084e-10 9.42881e-08 1.08643e-29)
(1.45646e-10 9.4289e-08 1.6182e-29)
(1.40377e-10 9.429e-08 5.31657e-30)
(1.35026e-10 9.42908e-08 -5.31736e-30)
(1.29589e-10 9.42917e-08 5.31808e-30)
(1.24064e-10 9.42925e-08 1.24172e-34)
(1.18451e-10 9.42932e-08 1.0876e-29)
(1.1275e-10 9.42939e-08 2.36447e-31)
(1.06966e-10 9.42946e-08 -1.07279e-42)
(1.011e-10 9.42952e-08 1.08795e-29)
(9.51586e-11 9.42958e-08 5.32188e-30)
(8.91448e-11 9.42963e-08 -3.37429e-35)
(8.3064e-11 9.42968e-08 -2.36615e-31)
(7.69212e-11 9.42972e-08 -5.0864e-30)
(7.07214e-11 9.42976e-08 1.08835e-29)
(6.44698e-11 9.4298e-08 -2.36687e-31)
(5.81715e-11 9.42983e-08 4.59917e-36)
(5.18314e-11 9.42986e-08 4.73403e-31)
(4.54545e-11 9.42989e-08 -2.36705e-31)
(3.90456e-11 9.42991e-08 5.32448e-30)
(3.26093e-11 9.42993e-08 1.64473e-29)
(2.61503e-11 9.42994e-08 -5.56145e-30)
(1.96732e-11 9.42995e-08 5.32481e-30)
(1.31823e-11 9.42996e-08 0)
(6.68217e-12 9.42997e-08 -3.98574e-36)
(1.77064e-13 9.42997e-08 5.79839e-30)
(-6.32865e-12 9.42997e-08 5.3249e-30)
(-1.28306e-11 9.42996e-08 -2.36734e-31)
(-1.93245e-11 9.42995e-08 5.32481e-30)
(-2.58059e-11 9.42994e-08 5.32473e-30)
(-3.22703e-11 9.42993e-08 5.32462e-30)
(-3.87132e-11 9.42991e-08 5.5612e-30)
(-4.51299e-11 9.42989e-08 1.06487e-29)
(-5.15158e-11 9.42986e-08 -1.10979e-36)
(-5.78659e-11 9.42983e-08 5.56062e-30)
(-6.41754e-11 9.4298e-08 5.32369e-30)
(-7.04391e-11 9.42977e-08 0)
(-7.6652e-11 9.42973e-08 0)
(-8.28087e-11 9.42968e-08 5.32275e-30)
(-8.89041e-11 9.42963e-08 -5.55898e-30)
(-9.4933e-11 9.42958e-08 5.32189e-30)
(-1.0089e-10 9.42952e-08 1.1116e-29)
(-1.06771e-10 9.42946e-08 -5.32087e-30)
(-1.12571e-10 9.4294e-08 -1.08772e-29)
(-1.18287e-10 9.42933e-08 5.55623e-30)
(-1.23915e-10 9.42925e-08 5.31914e-30)
(-1.29454e-10 9.42917e-08 0)
(-1.34905e-10 9.42909e-08 -2.36567e-31)
(-1.40268e-10 9.429e-08 -5.08022e-30)
(-1.45549e-10 9.42891e-08 2.09415e-34)
(-1.50755e-10 9.42881e-08 2.29213e-34)
(-1.55895e-10 9.42872e-08 -2.4652e-34)
(-1.60982e-10 9.42862e-08 -5.07487e-30)
(-1.66032e-10 9.42851e-08 0)
(-1.71058e-10 9.42839e-08 5.54274e-30)
(-1.76074e-10 9.42827e-08 2.87126e-34)
(-1.81084e-10 9.42812e-08 5.30049e-30)
(-1.86077e-10 9.42792e-08 6.45081e-46)
(-1.91016e-10 9.42766e-08 4.57022e-34)
(-1.95823e-10 9.42727e-08 5.28436e-30)
(-2.00366e-10 9.42669e-08 5.74647e-30)
(-2.04438e-10 9.42581e-08 2.37975e-31)
(-2.07777e-10 9.42446e-08 5.26191e-30)
(-2.10023e-10 9.42241e-08 -5.48048e-30)
(-2.11056e-10 9.41936e-08 5.22715e-30)
(-2.10904e-10 9.41494e-08 5.46022e-30)
(-2.10058e-10 9.40878e-08 -2.10894e-31)
(-2.13692e-10 9.4006e-08 -5.50974e-30)
(-2.2935e-10 9.39116e-08 5.51122e-30)
(-2.2866e-10 9.38476e-08 5.52162e-30)
(-3.34644e-10 9.3844e-08 1.17618e-29)
(-1.38616e-10 9.44964e-08 5.3062e-30)
(9.27341e-11 9.39153e-08 6.05448e-30)
(2.34102e-10 9.36205e-08 -1.20519e-29)
(1.56023e-10 9.35933e-08 1.14301e-31)
(1.71081e-10 9.36607e-08 2.73937e-31)
(1.72501e-10 9.37498e-08 2.18027e-31)
(1.8131e-10 9.38294e-08 -5.83182e-30)
(1.92554e-10 9.38908e-08 -2.16594e-31)
(2.01782e-10 9.39356e-08 -5.04277e-30)
(2.08262e-10 9.39669e-08 2.80177e-45)
(2.12065e-10 9.39882e-08 4.99338e-31)
(2.13457e-10 9.40024e-08 -6.0717e-33)
(2.12975e-10 9.40117e-08 -5.83222e-30)
(2.11079e-10 9.40178e-08 5.59184e-30)
(2.08159e-10 9.40219e-08 4.98562e-31)
(2.04509e-10 9.40247e-08 5.84746e-30)
(2.0034e-10 9.40267e-08 6.10228e-30)
(1.95797e-10 9.40283e-08 -5.35728e-30)