# Probe 0 (0.4 0.05 0)
# Probe 1 (0.55 0.55 0)
# Probe 2 (0.55 0.02 0)
# Time        0             1             2            
25            3.27705e-09   3.27705e-09   3.27704e-09  
50            3.2609e-09    3.2609e-09    3.26088e-09  
75            3.24492e-09   3.24492e-09   3.24484e-09  
100           3.22909e-09   3.22909e-09   3.22892e-09  
125           3.21341e-09   3.21341e-09   3.21312e-09  
150           3.19788e-09   3.19788e-09   3.19743e-09  
175           3.18251e-09   3.18251e-09   3.18187e-09  
200           3.16728e-09   3.16728e-09   3.16645e-09  
225           3.15219e-09   3.15219e-09   3.15118e-09  
250           3.13725e-09   3.13725e-09   3.13606e-09  
275           3.12245e-09   3.12245e-09   3.12108e-09  
300           3.10779e-09   3.10779e-09   3.10624e-09  
325           3.09326e-09   3.09326e-09   3.09155e-09  
350           3.07887e-09   3.07887e-09   3.077e-09    
375           3.06461e-09   3.06461e-09   3.06258e-09  
400           3.05048e-09   3.05048e-09   3.0483e-09   
425           3.03648e-09   3.03648e-09   3.03415e-09  
450           3.02261e-09   3.02261e-09   3.02014e-09  
475           3.00887e-09   3.00887e-09   3.00625e-09  
500           2.99525e-09   2.99525e-09   2.99248e-09  
525           2.98175e-09   2.98175e-09   2.97884e-09  
550           2.96837e-09   2.96837e-09   2.96532e-09  
575           2.95512e-09   2.95512e-09   2.95192e-09  
600           2.94198e-09   2.94198e-09   2.93864e-09  
625           2.92895e-09   2.92895e-09   2.92547e-09  
650           2.91604e-09   2.91604e-09   2.91242e-09  
675           2.90325e-09   2.90325e-09   2.89948e-09  
700           2.89056e-09   2.89056e-09   2.88665e-09  
725           2.87799e-09   2.87799e-09   2.87393e-09  
750           2.86552e-09   2.86552e-09   2.86131e-09  
775           2.85316e-09   2.85316e-09   2.8488e-09   
800           2.84091e-09   2.84091e-09   2.83639e-09  
825           2.82876e-09   2.82876e-09   2.82408e-09  
850           2.81671e-09   2.81671e-09   2.81188e-09  
875           2.80477e-09   2.80477e-09   2.79977e-09  
900           2.79293e-09   2.79293e-09   2.78776e-09  
925           2.78119e-09   2.78119e-09   2.77584e-09  
950           2.76954e-09   2.76954e-09   2.76402e-09  
975           2.75799e-09   2.75799e-09   2.75229e-09  
1000          2.74654e-09   2.74654e-09   2.74066e-09  
1025          2.73518e-09   2.73518e-09   2.72911e-09  
1050          2.72392e-09   2.72392e-09   2.71766e-09  
1075          2.71274e-09   2.71275e-09   2.70629e-09  
1100          2.70166e-09   2.70166e-09   2.69501e-09  
1125          2.69067e-09   2.69067e-09   2.68382e-09  
1150          2.67977e-09   2.67977e-09   2.67272e-09  
1175          2.66896e-09   2.66896e-09   2.6617e-09   
1200          2.65823e-09   2.65823e-09   2.65076e-09  
1225          2.64759e-09   2.64759e-09   2.63991e-09  
1250          2.63703e-09   2.63703e-09   2.62914e-09  
1275          2.62655e-09   2.62656e-09   2.61844e-09  
1300          2.61616e-09   2.61616e-09   2.60783e-09  
1325          2.60585e-09   2.60586e-09   2.59729e-09  
1350          2.59563e-09   2.59563e-09   2.58683e-09  
1375          2.58548e-09   2.58548e-09   2.57645e-09  
1400          2.57541e-09   2.57541e-09   2.56614e-09  
1425          2.56542e-09   2.56542e-09   2.5559e-09   
1450          2.5555e-09    2.5555e-09    2.54573e-09  
1475          2.54566e-09   2.54566e-09   2.53564e-09  
1500          2.5359e-09    2.5359e-09    2.52561e-09  
1525          2.52621e-09   2.52621e-09   2.51565e-09  
1550          2.51659e-09   2.5166e-09    2.50577e-09  
1575          2.50705e-09   2.50705e-09   2.49594e-09  
1600          2.49758e-09   2.49758e-09   2.48618e-09  
1625          2.48818e-09   2.48819e-09   2.47649e-09  
1650          2.47885e-09   2.47886e-09   2.46686e-09  
1675          2.46959e-09   2.4696e-09    2.45729e-09  
1700          2.4604e-09    2.46041e-09   2.44779e-09  
1725          2.45128e-09   2.45128e-09   2.43834e-09  
1750          2.44223e-09   2.44223e-09   2.42896e-09  
1775          2.43324e-09   2.43324e-09   2.41963e-09  
1800          2.42431e-09   2.42432e-09   2.41036e-09  
1825          2.41546e-09   2.41546e-09   2.40115e-09  
1850          2.40666e-09   2.40667e-09   2.39199e-09  
1875          2.39793e-09   2.39794e-09   2.38289e-09  
1900          2.38926e-09   2.38927e-09   2.37384e-09  
1925          2.38066e-09   2.38067e-09   2.36485e-09  
1950          2.37212e-09   2.37212e-09   2.35591e-09  
1975          2.36363e-09   2.36364e-09   2.34702e-09  
2000          2.35521e-09   2.35522e-09   2.33818e-09  
2025          2.34685e-09   2.34686e-09   2.32939e-09  
2050          2.33855e-09   2.33856e-09   2.32065e-09  
2075          2.3303e-09    2.33031e-09   2.31196e-09  
2100          2.32212e-09   2.32212e-09   2.30332e-09  
2125          2.31399e-09   2.314e-09     2.29472e-09  
2150          2.30591e-09   2.30592e-09   2.28617e-09  
2175          2.2979e-09    2.29791e-09   2.27767e-09  
2200          2.28993e-09   2.28995e-09   2.2692e-09   
2225          2.28203e-09   2.28204e-09   2.26079e-09  
2250          2.27417e-09   2.27419e-09   2.25241e-09  
2275          2.26638e-09   2.26639e-09   2.24408e-09  
2300          2.25863e-09   2.25864e-09   2.23579e-09  
2325          2.25094e-09   2.25095e-09   2.22754e-09  
2350          2.2433e-09    2.24331e-09   2.21933e-09  
2375          2.23571e-09   2.23572e-09   2.21116e-09  
2400          2.22817e-09   2.22819e-09   2.20302e-09  
2425          2.22068e-09   2.2207e-09    2.19493e-09  
2450          2.21324e-09   2.21326e-09   2.18687e-09  
2475          2.20585e-09   2.20587e-09   2.17884e-09  
2500          2.19851e-09   2.19854e-09   2.17086e-09  
2525          2.19122e-09   2.19125e-09   2.1629e-09   
2550          2.18398e-09   2.184e-09     2.15499e-09  
2575          2.17678e-09   2.17681e-09   2.1471e-09   
2600          2.16964e-09   2.16966e-09   2.13925e-09  
2625          2.16253e-09   2.16256e-09   2.13143e-09  
2650          2.15548e-09   2.15551e-09   2.12364e-09  
2675          2.14847e-09   2.1485e-09    2.11588e-09  
2700          2.1415e-09    2.14154e-09   2.10816e-09  
2725          2.13458e-09   2.13462e-09   2.10046e-09  
2750          2.12771e-09   2.12775e-09   2.09279e-09  
2775          2.12088e-09   2.12092e-09   2.08515e-09  
2800          2.11409e-09   2.11413e-09   2.07753e-09  
2825          2.10734e-09   2.10739e-09   2.06994e-09  
2850          2.10064e-09   2.10069e-09   2.06238e-09  
2875          2.09398e-09   2.09403e-09   2.05485e-09  
2900          2.08736e-09   2.08742e-09   2.04734e-09  
2925          2.08079e-09   2.08085e-09   2.03985e-09  
2950          2.07425e-09   2.07431e-09   2.03239e-09  
2975          2.06776e-09   2.06782e-09   2.02495e-09  
3000          2.0613e-09    2.06137e-09   2.01753e-09  
3025          2.05489e-09   2.05496e-09   2.01013e-09  
3050          2.04851e-09   2.04859e-09   2.00276e-09  
3075          2.04218e-09   2.04226e-09   1.99541e-09  
3100          2.03588e-09   2.03596e-09   1.98807e-09  
3125          2.02962e-09   2.02971e-09   1.98076e-09  
3150          2.0234e-09    2.02349e-09   1.97347e-09  
3175          2.01721e-09   2.01731e-09   1.96619e-09  
3200          2.01107e-09   2.01117e-09   1.95893e-09  
3225          2.00496e-09   2.00507e-09   1.95169e-09  
3250          1.99889e-09   1.999e-09     1.94446e-09  
3275          1.99285e-09   1.99297e-09   1.93726e-09  
3300          1.98685e-09   1.98698e-09   1.93006e-09  
3325          1.98088e-09   1.98102e-09   1.92289e-09  
3350          1.97495e-09   1.9751e-09    1.91572e-09  
3375          1.96906e-09   1.96921e-09   1.90857e-09  
3400          1.9632e-09    1.96336e-09   1.90144e-09  
3425          1.95737e-09   1.95754e-09   1.89432e-09  
3450          1.95158e-09   1.95176e-09   1.88721e-09  
3475          1.94582e-09   1.94601e-09   1.88011e-09  
3500          1.9401e-09    1.94029e-09   1.87302e-09  
3525          1.9344e-09    1.93461e-09   1.86595e-09  
3550          1.92874e-09   1.92896e-09   1.85888e-09  
3575          1.92312e-09   1.92335e-09   1.85183e-09  
3600          1.91752e-09   1.91776e-09   1.84479e-09  
3625          1.91196e-09   1.91221e-09   1.83775e-09  
3650          1.90643e-09   1.90669e-09   1.83072e-09  
3675          1.90093e-09   1.9012e-09    1.8237e-09   
3700          1.89545e-09   1.89575e-09   1.81669e-09  
3725          1.89002e-09   1.89032e-09   1.80969e-09  
3750          1.88461e-09   1.88493e-09   1.80269e-09  
3775          1.87923e-09   1.87957e-09   1.7957e-09   
3800          1.87388e-09   1.87423e-09   1.78872e-09  
3825          1.86856e-09   1.86893e-09   1.78174e-09  
3850          1.86326e-09   1.86366e-09   1.77477e-09  
3875          1.858e-09     1.85841e-09   1.7678e-09   
3900          1.85277e-09   1.8532e-09    1.76084e-09  
3925          1.84756e-09   1.84801e-09   1.75388e-09  
3950          1.84238e-09   1.84286e-09   1.74693e-09  
3975          1.83723e-09   1.83773e-09   1.73997e-09  
4000          1.83211e-09   1.83263e-09   1.73302e-09  
4025          1.82701e-09   1.82756e-09   1.72608e-09  
4050          1.82194e-09   1.82252e-09   1.71913e-09  
4075          1.8169e-09    1.8175e-09    1.71219e-09  
4100          1.81188e-09   1.81252e-09   1.70525e-09  
4125          1.80689e-09   1.80756e-09   1.69831e-09  
4150          1.80193e-09   1.80262e-09   1.69138e-09  
4175          1.79699e-09   1.79772e-09   1.68444e-09  
4200          1.79207e-09   1.79284e-09   1.6775e-09   
4225          1.78718e-09   1.78798e-09   1.67057e-09  
4250          1.78232e-09   1.78316e-09   1.66363e-09  
4275          1.77748e-09   1.77835e-09   1.65669e-09  
4300          1.77266e-09   1.77358e-09   1.64975e-09  
4325          1.76787e-09   1.76883e-09   1.64282e-09  
4350          1.7631e-09    1.7641e-09    1.63588e-09  
4375          1.75836e-09   1.7594e-09    1.62893e-09  
4400          1.75363e-09   1.75473e-09   1.62199e-09  
4425          1.74893e-09   1.75008e-09   1.61504e-09  
4450          1.74426e-09   1.74545e-09   1.6081e-09   
4475          1.7396e-09    1.74085e-09   1.60115e-09  
4500          1.73497e-09   1.73628e-09   1.59419e-09  
4525          1.73036e-09   1.73172e-09   1.58724e-09  
4550          1.72577e-09   1.7272e-09    1.58028e-09  
4575          1.7212e-09    1.72269e-09   1.57332e-09  
4600          1.71665e-09   1.71821e-09   1.56635e-09  
4625          1.71212e-09   1.71375e-09   1.55939e-09  
4650          1.70762e-09   1.70931e-09   1.55241e-09  
4675          1.70313e-09   1.7049e-09    1.54544e-09  
4700          1.69866e-09   1.70051e-09   1.53846e-09  
4725          1.69421e-09   1.69614e-09   1.53147e-09  
4750          1.68979e-09   1.6918e-09    1.52448e-09  
4775          1.68538e-09   1.68747e-09   1.51749e-09  
4800          1.68099e-09   1.68317e-09   1.51049e-09  
4825          1.67661e-09   1.67889e-09   1.50349e-09  
4850          1.67226e-09   1.67464e-09   1.49648e-09  
4875          1.66792e-09   1.6704e-09    1.48947e-09  
4900          1.66361e-09   1.66619e-09   1.48246e-09  
4925          1.6593e-09    1.66199e-09   1.47543e-09  
4950          1.65502e-09   1.65782e-09   1.46841e-09  
4975          1.65075e-09   1.65367e-09   1.46138e-09  
5000          1.6465e-09    1.64954e-09   1.45434e-09  
5025          1.64227e-09   1.64543e-09   1.4473e-09   
5050          1.63805e-09   1.64134e-09   1.44025e-09  
5075          1.63385e-09   1.63727e-09   1.4332e-09   
5100          1.62966e-09   1.63322e-09   1.42614e-09  
5125          1.62549e-09   1.62919e-09   1.41908e-09  
5150          1.62133e-09   1.62518e-09   1.41201e-09  
5175          1.61719e-09   1.62119e-09   1.40494e-09  
5200          1.61306e-09   1.61722e-09   1.39786e-09  
5225          1.60894e-09   1.61327e-09   1.39078e-09  
5250          1.60484e-09   1.60933e-09   1.38369e-09  
5275          1.60075e-09   1.60542e-09   1.37659e-09  
5300          1.59668e-09   1.60153e-09   1.3695e-09   
5325          1.59262e-09   1.59765e-09   1.36239e-09  
5350          1.58857e-09   1.5938e-09    1.35529e-09  
5375          1.58453e-09   1.58996e-09   1.34817e-09  
5400          1.5805e-09    1.58614e-09   1.34105e-09  
5425          1.57649e-09   1.58234e-09   1.33393e-09  
5450          1.57248e-09   1.57855e-09   1.32681e-09  
5475          1.56849e-09   1.57479e-09   1.31967e-09  
5500          1.56451e-09   1.57104e-09   1.31254e-09  
5525          1.56054e-09   1.56731e-09   1.3054e-09   
5550          1.55658e-09   1.5636e-09    1.29826e-09  
5575          1.55262e-09   1.55991e-09   1.29111e-09  
5600          1.54868e-09   1.55623e-09   1.28396e-09  
5625          1.54475e-09   1.55257e-09   1.2768e-09   
5650          1.54082e-09   1.54893e-09   1.26965e-09  
5675          1.53691e-09   1.5453e-09    1.26248e-09  
5700          1.533e-09     1.54169e-09   1.25532e-09  
5725          1.5291e-09    1.5381e-09    1.24815e-09  
5750          1.5252e-09    1.53453e-09   1.24098e-09  
5775          1.52132e-09   1.53097e-09   1.23381e-09  
5800          1.51744e-09   1.52743e-09   1.22663e-09  
5825          1.51357e-09   1.5239e-09    1.21946e-09  
5850          1.5097e-09    1.52039e-09   1.21228e-09  
5875          1.50584e-09   1.5169e-09    1.2051e-09   
5900          1.50198e-09   1.51342e-09   1.19792e-09  
5925          1.49813e-09   1.50996e-09   1.19073e-09  
5950          1.49428e-09   1.50651e-09   1.18355e-09  
5975          1.49044e-09   1.50308e-09   1.17637e-09  
6000          1.4866e-09    1.49967e-09   1.16918e-09  
6025          1.48277e-09   1.49627e-09   1.162e-09    
6050          1.47894e-09   1.49289e-09   1.15481e-09  
6075          1.47511e-09   1.48952e-09   1.14763e-09  
6100          1.47128e-09   1.48617e-09   1.14044e-09  
6125          1.46746e-09   1.48283e-09   1.13326e-09  
6150          1.46364e-09   1.4795e-09    1.12608e-09  
6175          1.45982e-09   1.4762e-09    1.1189e-09   
6200          1.456e-09     1.4729e-09    1.11172e-09  
6225          1.45218e-09   1.46962e-09   1.10454e-09  
6250          1.44837e-09   1.46636e-09   1.09737e-09  
6275          1.44455e-09   1.46311e-09   1.0902e-09   
6300          1.44073e-09   1.45987e-09   1.08303e-09  
6325          1.43692e-09   1.45665e-09   1.07586e-09  
6350          1.4331e-09    1.45344e-09   1.0687e-09   
6375          1.42928e-09   1.45025e-09   1.06155e-09  
6400          1.42546e-09   1.44707e-09   1.05439e-09  
6425          1.42163e-09   1.44391e-09   1.04724e-09  
6450          1.41781e-09   1.44076e-09   1.0401e-09   
6475          1.41398e-09   1.43762e-09   1.03296e-09  
6500          1.41015e-09   1.43449e-09   1.02583e-09  
6525          1.40632e-09   1.43138e-09   1.01871e-09  
6550          1.40248e-09   1.42829e-09   1.01159e-09  
6575          1.39863e-09   1.4252e-09    1.00448e-09  
6600          1.39479e-09   1.42213e-09   9.97371e-10  
6625          1.39094e-09   1.41907e-09   9.90274e-10  
6650          1.38708e-09   1.41603e-09   9.83185e-10  
6675          1.38322e-09   1.413e-09     9.76104e-10  
6700          1.37935e-09   1.40998e-09   9.69032e-10  
6725          1.37547e-09   1.40698e-09   9.61969e-10  
6750          1.37159e-09   1.40398e-09   9.54915e-10  
6775          1.3677e-09    1.401e-09     9.47872e-10  
6800          1.36381e-09   1.39804e-09   9.40838e-10  
6825          1.35991e-09   1.39508e-09   9.33815e-10  
6850          1.356e-09     1.39214e-09   9.26804e-10  
6875          1.35208e-09   1.38921e-09   9.19804e-10  
6900          1.34815e-09   1.38629e-09   9.12816e-10  
6925          1.34421e-09   1.38339e-09   9.0584e-10   
6950          1.34027e-09   1.38049e-09   8.98877e-10  
6975          1.33631e-09   1.37761e-09   8.91928e-10  
7000          1.33234e-09   1.37474e-09   8.84992e-10  
7025          1.32837e-09   1.37189e-09   8.78069e-10  
7050          1.32438e-09   1.36904e-09   8.71161e-10  
7075          1.32039e-09   1.36621e-09   8.64268e-10  
7100          1.31638e-09   1.36338e-09   8.57389e-10  
7125          1.31236e-09   1.36057e-09   8.50527e-10  
7150          1.30832e-09   1.35777e-09   8.4368e-10   
7175          1.30428e-09   1.35499e-09   8.36849e-10  
7200          1.30022e-09   1.35221e-09   8.30035e-10  
7225          1.29616e-09   1.34945e-09   8.23237e-10  
7250          1.29207e-09   1.34669e-09   8.16458e-10  
7275          1.28798e-09   1.34395e-09   8.09697e-10  
7300          1.28387e-09   1.34122e-09   8.02953e-10  
7325          1.27974e-09   1.3385e-09    7.96229e-10  
7350          1.27561e-09   1.33579e-09   7.89523e-10  
7375          1.27146e-09   1.33309e-09   7.82837e-10  
7400          1.26729e-09   1.33041e-09   7.76171e-10  
7425          1.26311e-09   1.32773e-09   7.69525e-10  
7450          1.25891e-09   1.32506e-09   7.629e-10    
7475          1.2547e-09    1.32241e-09   7.56296e-10  
7500          1.25047e-09   1.31976e-09   7.49714e-10  
7525          1.24623e-09   1.31713e-09   7.43153e-10  
7550          1.24197e-09   1.31451e-09   7.36615e-10  
7575          1.23769e-09   1.31189e-09   7.30099e-10  
7600          1.2334e-09    1.30929e-09   7.23607e-10  
7625          1.22909e-09   1.3067e-09    7.17137e-10  
7650          1.22476e-09   1.30412e-09   7.10692e-10  
7675          1.22041e-09   1.30155e-09   7.0427e-10   
7700          1.21605e-09   1.29898e-09   6.97874e-10  
7725          1.21167e-09   1.29643e-09   6.91502e-10  
7750          1.20727e-09   1.29389e-09   6.85156e-10  
7775          1.20286e-09   1.29136e-09   6.78835e-10  
7800          1.19842e-09   1.28884e-09   6.7254e-10   
7825          1.19397e-09   1.28633e-09   6.66272e-10  
7850          1.1895e-09    1.28382e-09   6.6003e-10   
7875          1.18501e-09   1.28133e-09   6.53816e-10  
7900          1.1805e-09    1.27885e-09   6.47629e-10  
7925          1.17597e-09   1.27637e-09   6.4147e-10   
7950          1.17143e-09   1.27391e-09   6.35338e-10  
7975          1.16686e-09   1.27146e-09   6.29236e-10  
8000          1.16227e-09   1.26901e-09   6.23162e-10  
8025          1.15767e-09   1.26658e-09   6.17118e-10  
8050          1.15304e-09   1.26415e-09   6.11103e-10  
8075          1.1484e-09    1.26173e-09   6.05117e-10  
8100          1.14374e-09   1.25933e-09   5.99162e-10  
8125          1.13905e-09   1.25693e-09   5.93238e-10  
8150          1.13435e-09   1.25454e-09   5.87344e-10  
8175          1.12962e-09   1.25216e-09   5.81481e-10  
8200          1.12488e-09   1.24979e-09   5.75649e-10  
8225          1.12012e-09   1.24742e-09   5.6985e-10   
8250          1.11533e-09   1.24507e-09   5.64082e-10  
8275          1.11053e-09   1.24272e-09   5.58346e-10  
8300          1.1057e-09    1.24039e-09   5.52643e-10  
8325          1.10086e-09   1.23806e-09   5.46973e-10  
8350          1.096e-09     1.23574e-09   5.41336e-10  
8375          1.09111e-09   1.23343e-09   5.35732e-10  
8400          1.08621e-09   1.23113e-09   5.30162e-10  
8425          1.08128e-09   1.22884e-09   5.24625e-10  
8450          1.07634e-09   1.22656e-09   5.19123e-10  
8475          1.07137e-09   1.22428e-09   5.13655e-10  
8500          1.06639e-09   1.22201e-09   5.08222e-10  
8525          1.06138e-09   1.21975e-09   5.02823e-10  
8550          1.05636e-09   1.2175e-09    4.9746e-10   
8575          1.05132e-09   1.21526e-09   4.92132e-10  
8600          1.04625e-09   1.21303e-09   4.86839e-10  
8625          1.04117e-09   1.2108e-09    4.81582e-10  
8650          1.03607e-09   1.20859e-09   4.76361e-10  
8675          1.03095e-09   1.20638e-09   4.71176e-10  
8700          1.02581e-09   1.20417e-09   4.66027e-10  
8725          1.02065e-09   1.20198e-09   4.60915e-10  
8750          1.01547e-09   1.1998e-09    4.55839e-10  
8775          1.01027e-09   1.19762e-09   4.508e-10    
8800          1.00506e-09   1.19545e-09   4.45798e-10  
8825          9.99822e-10   1.19329e-09   4.40834e-10  
8850          9.9457e-10    1.19113e-09   4.35906e-10  
8875          9.893e-10     1.18899e-09   4.31016e-10  
8900          9.84013e-10   1.18685e-09   4.26164e-10  
8925          9.78708e-10   1.18472e-09   4.21349e-10  
8950          9.73386e-10   1.18259e-09   4.16572e-10  
8975          9.68046e-10   1.18048e-09   4.11834e-10  
9000          9.6269e-10    1.17837e-09   4.07133e-10  
9025          9.57317e-10   1.17627e-09   4.0247e-10   
9050          9.51928e-10   1.17418e-09   3.97846e-10  
9075          9.46523e-10   1.17209e-09   3.9326e-10   
9100          9.41103e-10   1.17001e-09   3.88713e-10  
9125          9.35667e-10   1.16794e-09   3.84204e-10  
9150          9.30215e-10   1.16588e-09   3.79733e-10  
9175          9.24749e-10   1.16382e-09   3.75302e-10  
9200          9.19269e-10   1.16177e-09   3.70909e-10  
9225          9.13774e-10   1.15973e-09   3.66555e-10  
9250          9.08265e-10   1.1577e-09    3.6224e-10   
9275          9.02743e-10   1.15567e-09   3.57964e-10  
9300          8.97207e-10   1.15365e-09   3.53727e-10  
9325          8.91659e-10   1.15163e-09   3.49529e-10  
9350          8.86098e-10   1.14963e-09   3.4537e-10   
9375          8.80526e-10   1.14763e-09   3.4125e-10   
9400          8.74941e-10   1.14564e-09   3.37168e-10  
9425          8.69345e-10   1.14365e-09   3.33126e-10  
9450          8.63739e-10   1.14167e-09   3.29123e-10  
9475          8.58121e-10   1.1397e-09    3.25159e-10  
9500          8.52494e-10   1.13773e-09   3.21235e-10  
9525          8.46857e-10   1.13578e-09   3.17349e-10  
9550          8.41211e-10   1.13382e-09   3.13502e-10  
9575          8.35556e-10   1.13188e-09   3.09694e-10  
9600          8.29892e-10   1.12994e-09   3.05925e-10  
9625          8.24221e-10   1.12801e-09   3.02194e-10  
9650          8.18542e-10   1.12608e-09   2.98503e-10  
9675          8.12856e-10   1.12416e-09   2.9485e-10   
9700          8.07163e-10   1.12225e-09   2.91236e-10  
9725          8.01465e-10   1.12035e-09   2.87661e-10  
9750          7.9576e-10    1.11845e-09   2.84124e-10  
9775          7.90051e-10   1.11656e-09   2.80626e-10  
9800          7.84337e-10   1.11467e-09   2.77166e-10  
9825          7.78619e-10   1.11279e-09   2.73744e-10  
9850          7.72897e-10   1.11092e-09   2.70361e-10  
9875          7.67172e-10   1.10905e-09   2.67015e-10  
9900          7.61445e-10   1.10719e-09   2.63708e-10  
9925          7.55715e-10   1.10533e-09   2.60439e-10  
9950          7.49984e-10   1.10348e-09   2.57207e-10  
9975          7.44252e-10   1.10164e-09   2.54013e-10  
10000         7.38519e-10   1.0998e-09    2.50856e-10  
10025         7.32786e-10   1.09797e-09   2.47737e-10  
10050         7.27054e-10   1.09615e-09   2.44655e-10  
10075         7.21323e-10   1.09433e-09   2.4161e-10   
10100         7.15593e-10   1.09252e-09   2.38602e-10  
10125         7.09866e-10   1.09071e-09   2.35631e-10  
10150         7.04141e-10   1.08891e-09   2.32696e-10  
10175         6.9842e-10    1.08712e-09   2.29798e-10  
10200         6.92702e-10   1.08533e-09   2.26936e-10  
10225         6.86989e-10   1.08355e-09   2.24111e-10  
10250         6.8128e-10    1.08177e-09   2.21321e-10  
10275         6.75578e-10   1.08e-09      2.18567e-10  
10300         6.69881e-10   1.07824e-09   2.15849e-10  
10325         6.64191e-10   1.07648e-09   2.13165e-10  
10350         6.58508e-10   1.07472e-09   2.10518e-10  
10375         6.52832e-10   1.07298e-09   2.07905e-10  
10400         6.47165e-10   1.07123e-09   2.05327e-10  
10425         6.41507e-10   1.0695e-09    2.02783e-10  
10450         6.35859e-10   1.06777e-09   2.00274e-10  
10475         6.3022e-10    1.06604e-09   1.97799e-10  
10500         6.24592e-10   1.06432e-09   1.95358e-10  
10525         6.18975e-10   1.06261e-09   1.9295e-10   
10550         6.1337e-10    1.0609e-09    1.90577e-10  
10575         6.07777e-10   1.05919e-09   1.88236e-10  
10600         6.02197e-10   1.0575e-09    1.85928e-10  
10625         5.9663e-10    1.0558e-09    1.83654e-10  
10650         5.91078e-10   1.05412e-09   1.81412e-10  
10675         5.8554e-10    1.05244e-09   1.79202e-10  
10700         5.80017e-10   1.05076e-09   1.77024e-10  
10725         5.74509e-10   1.04909e-09   1.74878e-10  
10750         5.69018e-10   1.04742e-09   1.72764e-10  
10775         5.63544e-10   1.04576e-09   1.70681e-10  
10800         5.58087e-10   1.04411e-09   1.68629e-10  
10825         5.52648e-10   1.04246e-09   1.66608e-10  
10850         5.47227e-10   1.04081e-09   1.64618e-10  
10875         5.41825e-10   1.03917e-09   1.62658e-10  
10900         5.36443e-10   1.03754e-09   1.60728e-10  
10925         5.3108e-10    1.03591e-09   1.58828e-10  
10950         5.25738e-10   1.03429e-09   1.56957e-10  
10975         5.20417e-10   1.03267e-09   1.55116e-10  
11000         5.15118e-10   1.03105e-09   1.53303e-10  
11025         5.09841e-10   1.02944e-09   1.5152e-10   
11050         5.04586e-10   1.02784e-09   1.49764e-10  
11075         4.99355e-10   1.02624e-09   1.48037e-10  
11100         4.94147e-10   1.02465e-09   1.46338e-10  
11125         4.88963e-10   1.02306e-09   1.44667e-10  
11150         4.83804e-10   1.02147e-09   1.43023e-10  
11175         4.78669e-10   1.0199e-09    1.41406e-10  
11200         4.73561e-10   1.01832e-09   1.39816e-10  
11225         4.68478e-10   1.01675e-09   1.38252e-10  
11250         4.63421e-10   1.01519e-09   1.36715e-10  
11275         4.58392e-10   1.01363e-09   1.35203e-10  
11300         4.5339e-10    1.01207e-09   1.33718e-10  
11325         4.48416e-10   1.01052e-09   1.32257e-10  
11350         4.4347e-10    1.00898e-09   1.30822e-10  
11375         4.38552e-10   1.00744e-09   1.29412e-10  
11400         4.33664e-10   1.0059e-09    1.28026e-10  
11425         4.28805e-10   1.00437e-09   1.26665e-10  
11450         4.23976e-10   1.00284e-09   1.25327e-10  
11475         4.19178e-10   1.00132e-09   1.24014e-10  
11500         4.1441e-10    9.99801e-10   1.22723e-10  
11525         4.09673e-10   9.98288e-10   1.21456e-10  
11550         4.04968e-10   9.9678e-10    1.20212e-10  
11575         4.00294e-10   9.95276e-10   1.18991e-10  
11600         3.95652e-10   9.93776e-10   1.17791e-10  
11625         3.91043e-10   9.92282e-10   1.16614e-10  
11650         3.86467e-10   9.90791e-10   1.15459e-10  
11675         3.81924e-10   9.89305e-10   1.14325e-10  
11700         3.77414e-10   9.87824e-10   1.13212e-10  
11725         3.72938e-10   9.86347e-10   1.1212e-10   
11750         3.68496e-10   9.84874e-10   1.11049e-10  
11775         3.64089e-10   9.83406e-10   1.09998e-10  
11800         3.59716e-10   9.81942e-10   1.08967e-10  
11825         3.55378e-10   9.80483e-10   1.07956e-10  
11850         3.51075e-10   9.79028e-10   1.06965e-10  
11875         3.46808e-10   9.77577e-10   1.05993e-10  
11900         3.42576e-10   9.7613e-10    1.05039e-10  
11925         3.3838e-10    9.74688e-10   1.04105e-10  
11950         3.34221e-10   9.7325e-10    1.03189e-10  
11975         3.30097e-10   9.71816e-10   1.02292e-10  
12000         3.26011e-10   9.70386e-10   1.01412e-10  
12025         3.2196e-10    9.68961e-10   1.0055e-10   
12050         3.17947e-10   9.6754e-10    9.9705e-11   
12075         3.13971e-10   9.66123e-10   9.88775e-11  
12100         3.10032e-10   9.6471e-10    9.80669e-11  
12125         3.06131e-10   9.63301e-10   9.72729e-11  
12150         3.02267e-10   9.61896e-10   9.64953e-11  
12175         2.9844e-10    9.60496e-10   9.57338e-11  
12200         2.94652e-10   9.59099e-10   9.49882e-11  
12225         2.90901e-10   9.57707e-10   9.42583e-11  
12250         2.87189e-10   9.56318e-10   9.35437e-11  
12275         2.83514e-10   9.54934e-10   9.28442e-11  
12300         2.79878e-10   9.53553e-10   9.21596e-11  
12325         2.7628e-10    9.52177e-10   9.14897e-11  
12350         2.7272e-10    9.50804e-10   9.08342e-11  
12375         2.69198e-10   9.49436e-10   9.01928e-11  
12400         2.65715e-10   9.48071e-10   8.95654e-11  
12425         2.62271e-10   9.46711e-10   8.89517e-11  
12450         2.58865e-10   9.45354e-10   8.83514e-11  
12475         2.55497e-10   9.44001e-10   8.77643e-11  
12500         2.52168e-10   9.42652e-10   8.71903e-11  
12525         2.48877e-10   9.41307e-10   8.6629e-11   
12550         2.45625e-10   9.39965e-10   8.60803e-11  
12575         2.42411e-10   9.38628e-10   8.5544e-11   
12600         2.39235e-10   9.37294e-10   8.50198e-11  
12625         2.36098e-10   9.35964e-10   8.45074e-11  
12650         2.32999e-10   9.34638e-10   8.40068e-11  
12675         2.29939e-10   9.33315e-10   8.35176e-11  
12700         2.26916e-10   9.31997e-10   8.30397e-11  
12725         2.23932e-10   9.30682e-10   8.25728e-11  
12750         2.20986e-10   9.2937e-10    8.21168e-11  
12775         2.18077e-10   9.28063e-10   8.16715e-11  
12800         2.15207e-10   9.26759e-10   8.12366e-11  
12825         2.12374e-10   9.25458e-10   8.08119e-11  
12850         2.09579e-10   9.24162e-10   8.03974e-11  
12875         2.06821e-10   9.22869e-10   7.99927e-11  
12900         2.041e-10     9.21579e-10   7.95976e-11  
12925         2.01417e-10   9.20294e-10   7.92121e-11  
12950         1.9877e-10    9.19011e-10   7.88358e-11  
12975         1.96161e-10   9.17733e-10   7.84687e-11  
13000         1.93588e-10   9.16457e-10   7.81105e-11  
13025         1.91052e-10   9.15186e-10   7.77611e-11  
13050         1.88552e-10   9.13918e-10   7.74202e-11  
13075         1.86088e-10   9.12653e-10   7.70878e-11  
13100         1.8366e-10    9.11392e-10   7.67636e-11  
13125         1.81268e-10   9.10135e-10   7.64475e-11  
13150         1.78911e-10   9.08881e-10   7.61393e-11  
13175         1.7659e-10    9.0763e-10    7.58389e-11  
13200         1.74303e-10   9.06383e-10   7.5546e-11   
13225         1.72052e-10   9.05139e-10   7.52605e-11  
13250         1.69835e-10   9.03898e-10   7.49823e-11  
13275         1.67653e-10   9.02661e-10   7.47112e-11  
13300         1.65505e-10   9.01428e-10   7.44471e-11  
13325         1.63391e-10   9.00197e-10   7.41898e-11  