# Probe 0 (0.4 0.05 0)
# Probe 1 (0.55 0.55 0)
# Probe 2 (0.55 0.02 0)
# Time        0             1             2            
25            -5.40475e-08  -9.31272e-08  -7.13578e-08 
50            -8.78392e-08  -1.13658e-07  -7.98797e-08 
75            -9.25142e-08  -1.11552e-07  -8.07373e-08 
100           -9.29292e-08  -1.10049e-07  -8.03008e-08 
125           -9.24717e-08  -1.08855e-07  -7.99952e-08 
150           -9.19718e-08  -1.07737e-07  -7.94868e-08 
175           -9.13981e-08  -1.06649e-07  -7.91095e-08 
200           -9.08683e-08  -1.05578e-07  -7.86476e-08 
225           -9.03169e-08  -1.04526e-07  -7.82534e-08 
250           -8.97917e-08  -1.03489e-07  -7.78212e-08 
275           -8.92595e-08  -1.02467e-07  -7.74239e-08 
300           -8.8743e-08   -1.01461e-07  -7.70106e-08 
325           -8.82262e-08  -1.00469e-07  -7.66163e-08 
350           -8.77198e-08  -9.94913e-08  -7.62163e-08 
375           -8.72162e-08  -9.85279e-08  -7.58276e-08 
400           -8.67204e-08  -9.75778e-08  -7.54383e-08 
425           -8.62286e-08  -9.66413e-08  -7.50564e-08 
450           -8.57434e-08  -9.57179e-08  -7.46762e-08 
475           -8.52628e-08  -9.48074e-08  -7.43014e-08 
500           -8.47879e-08  -9.39096e-08  -7.39294e-08 
525           -8.43179e-08  -9.30241e-08  -7.35619e-08 
550           -8.3853e-08   -9.21504e-08  -7.31975e-08 
575           -8.3393e-08   -9.12889e-08  -7.28371e-08 
600           -8.29381e-08  -9.04392e-08  -7.248e-08   
625           -8.24879e-08  -8.96009e-08  -7.21266e-08 
650           -8.20424e-08  -8.87737e-08  -7.17766e-08 
675           -8.16015e-08  -8.79577e-08  -7.14299e-08 
700           -8.11653e-08  -8.71525e-08  -7.10866e-08 
725           -8.07335e-08  -8.6358e-08   -7.07466e-08 
750           -8.03062e-08  -8.55739e-08  -7.04098e-08 
775           -7.98833e-08  -8.48002e-08  -7.00762e-08 
800           -7.94646e-08  -8.40366e-08  -6.97457e-08 
825           -7.90502e-08  -8.32829e-08  -6.94184e-08 
850           -7.864e-08    -8.2539e-08   -6.90941e-08 
875           -7.82339e-08  -8.18048e-08  -6.87728e-08 
900           -7.78318e-08  -8.10798e-08  -6.84544e-08 
925           -7.74337e-08  -8.03643e-08  -6.81391e-08 
950           -7.70396e-08  -7.96579e-08  -6.78265e-08 
975           -7.66493e-08  -7.89603e-08  -6.75169e-08 
1000          -7.6263e-08   -7.82716e-08  -6.72101e-08 
1025          -7.58805e-08  -7.75918e-08  -6.69062e-08 
1050          -7.55019e-08  -7.69206e-08  -6.66052e-08 
1075          -7.5127e-08   -7.62581e-08  -6.63069e-08 
1100          -7.47557e-08  -7.56037e-08  -6.60113e-08 
1125          -7.4388e-08   -7.49573e-08  -6.57183e-08 
1150          -7.40237e-08  -7.4319e-08   -6.54279e-08 
1175          -7.3663e-08   -7.36885e-08  -6.51401e-08 
1200          -7.33056e-08  -7.30657e-08  -6.48548e-08 
1225          -7.29516e-08  -7.24505e-08  -6.4572e-08  
1250          -7.26009e-08  -7.18429e-08  -6.42917e-08 
1275          -7.22535e-08  -7.12425e-08  -6.40137e-08 
1300          -7.19093e-08  -7.06494e-08  -6.37381e-08 
1325          -7.15683e-08  -7.00634e-08  -6.34649e-08 
1350          -7.12304e-08  -6.94845e-08  -6.3194e-08  
1375          -7.08956e-08  -6.89124e-08  -6.29254e-08 
1400          -7.05638e-08  -6.83471e-08  -6.26591e-08 
1425          -7.0235e-08   -6.77885e-08  -6.2395e-08  
1450          -6.99092e-08  -6.72365e-08  -6.21331e-08 
1475          -6.95864e-08  -6.66909e-08  -6.18734e-08 
1500          -6.92664e-08  -6.61517e-08  -6.16158e-08 
1525          -6.89492e-08  -6.56188e-08  -6.13603e-08 
1550          -6.86349e-08  -6.50921e-08  -6.1107e-08  
1575          -6.83233e-08  -6.45714e-08  -6.08557e-08 
1600          -6.80145e-08  -6.40568e-08  -6.06064e-08 
1625          -6.77084e-08  -6.3548e-08   -6.03592e-08 
1650          -6.74049e-08  -6.30451e-08  -6.0114e-08  
1675          -6.71041e-08  -6.25478e-08  -5.98707e-08 
1700          -6.68059e-08  -6.20563e-08  -5.96294e-08 
1725          -6.65103e-08  -6.15704e-08  -5.93901e-08 
1750          -6.62171e-08  -6.10896e-08  -5.91526e-08 
1775          -6.59265e-08  -6.06146e-08  -5.8917e-08  
1800          -6.56384e-08  -6.01448e-08  -5.86833e-08 
1825          -6.53526e-08  -5.968e-08    -5.84514e-08 
1850          -6.50694e-08  -5.92207e-08  -5.82213e-08 
1875          -6.47885e-08  -5.87662e-08  -5.7993e-08  
1900          -6.451e-08    -5.8317e-08   -5.77665e-08 
1925          -6.42337e-08  -5.78725e-08  -5.75417e-08 
1950          -6.39598e-08  -5.74331e-08  -5.73187e-08 
1975          -6.36881e-08  -5.69982e-08  -5.70974e-08 
2000          -6.34187e-08  -5.65683e-08  -5.68778e-08 
2025          -6.31515e-08  -5.61428e-08  -5.66599e-08 
2050          -6.28865e-08  -5.57222e-08  -5.64436e-08 
2075          -6.26236e-08  -5.53059e-08  -5.6229e-08  
2100          -6.23629e-08  -5.48941e-08  -5.60159e-08 
2125          -6.21043e-08  -5.44868e-08  -5.58045e-08 
2150          -6.18477e-08  -5.40837e-08  -5.55947e-08 
2175          -6.15933e-08  -5.3685e-08   -5.53864e-08 
2200          -6.13408e-08  -5.32904e-08  -5.51797e-08 
2225          -6.10904e-08  -5.29e-08     -5.49745e-08 
2250          -6.08419e-08  -5.25137e-08  -5.47708e-08 
2275          -6.05955e-08  -5.21315e-08  -5.45686e-08 
2300          -6.03509e-08  -5.17533e-08  -5.43679e-08 
2325          -6.01083e-08  -5.13789e-08  -5.41687e-08 
2350          -5.98676e-08  -5.10085e-08  -5.39709e-08 
2375          -5.96287e-08  -5.06418e-08  -5.37746e-08 
2400          -5.93917e-08  -5.02789e-08  -5.35796e-08 
2425          -5.91566e-08  -4.992e-08    -5.33861e-08 
2450          -5.89233e-08  -4.95644e-08  -5.3194e-08  
2475          -5.86917e-08  -4.92127e-08  -5.30032e-08 
2500          -5.8462e-08   -4.88645e-08  -5.28138e-08 
2525          -5.8234e-08   -4.85199e-08  -5.26258e-08 
2550          -5.80076e-08  -4.81785e-08  -5.24391e-08 
2575          -5.77831e-08  -4.78409e-08  -5.22537e-08 
2600          -5.75602e-08  -4.75066e-08  -5.20696e-08 
2625          -5.73389e-08  -4.7175e-08   -5.18867e-08 
2650          -5.71194e-08  -4.68476e-08  -5.17052e-08 
2675          -5.69015e-08  -4.65231e-08  -5.1525e-08  
2700          -5.66853e-08  -4.6202e-08   -5.1346e-08  
2725          -5.64706e-08  -4.5884e-08   -5.11682e-08 
2750          -5.62575e-08  -4.55691e-08  -5.09917e-08 
2775          -5.6046e-08   -4.52571e-08  -5.08163e-08 
2800          -5.5836e-08   -4.49482e-08  -5.06422e-08 
2825          -5.56276e-08  -4.46426e-08  -5.04692e-08 
2850          -5.54207e-08  -4.43398e-08  -5.02975e-08 
2875          -5.52153e-08  -4.40399e-08  -5.01269e-08 
2900          -5.50113e-08  -4.3743e-08   -4.99574e-08 
2925          -5.48089e-08  -4.34489e-08  -4.97891e-08 
2950          -5.46079e-08  -4.31576e-08  -4.96219e-08 
2975          -5.44083e-08  -4.28691e-08  -4.94559e-08 
3000          -5.42102e-08  -4.25834e-08  -4.92909e-08 
3025          -5.40135e-08  -4.23004e-08  -4.91271e-08 
3050          -5.38182e-08  -4.202e-08    -4.89643e-08 
3075          -5.36242e-08  -4.17424e-08  -4.88026e-08 
3100          -5.34316e-08  -4.14673e-08  -4.8642e-08  
3125          -5.32404e-08  -4.11949e-08  -4.84824e-08 
3150          -5.30505e-08  -4.0925e-08   -4.83239e-08 
3175          -5.2862e-08   -4.06576e-08  -4.81664e-08 
3200          -5.26747e-08  -4.03928e-08  -4.801e-08   
3225          -5.24888e-08  -4.01304e-08  -4.78545e-08 
3250          -5.23041e-08  -3.98704e-08  -4.77001e-08 
3275          -5.21207e-08  -3.96128e-08  -4.75466e-08 
3300          -5.19386e-08  -3.93576e-08  -4.73942e-08 
3325          -5.17577e-08  -3.91048e-08  -4.72427e-08 
3350          -5.15781e-08  -3.88543e-08  -4.70922e-08 
3375          -5.13997e-08  -3.8606e-08   -4.69426e-08 
3400          -5.12225e-08  -3.83601e-08  -4.6794e-08  
3425          -5.10464e-08  -3.81163e-08  -4.66464e-08 
3450          -5.08716e-08  -3.78748e-08  -4.64997e-08 
3475          -5.0698e-08   -3.76355e-08  -4.63539e-08 
3500          -5.05255e-08  -3.73983e-08  -4.6209e-08  
3525          -5.03541e-08  -3.71633e-08  -4.6065e-08  
3550          -5.01839e-08  -3.69303e-08  -4.59219e-08 
3575          -5.00149e-08  -3.66995e-08  -4.57797e-08 
3600          -4.98469e-08  -3.64707e-08  -4.56384e-08 
3625          -4.96801e-08  -3.62439e-08  -4.5498e-08  
3650          -4.95143e-08  -3.60192e-08  -4.53584e-08 
3675          -4.93497e-08  -3.57964e-08  -4.52197e-08 
3700          -4.91861e-08  -3.55756e-08  -4.50819e-08 
3725          -4.90236e-08  -3.53568e-08  -4.49448e-08 
3750          -4.88621e-08  -3.51398e-08  -4.48087e-08 
3775          -4.87017e-08  -3.49248e-08  -4.46733e-08 
3800          -4.85424e-08  -3.47116e-08  -4.45388e-08 
3825          -4.8384e-08   -3.45003e-08  -4.44051e-08 
3850          -4.82267e-08  -3.42909e-08  -4.42722e-08 
3875          -4.80704e-08  -3.40832e-08  -4.41401e-08 
3900          -4.7915e-08   -3.38774e-08  -4.40087e-08 
3925          -4.77607e-08  -3.36733e-08  -4.38782e-08 
3950          -4.76074e-08  -3.34709e-08  -4.37485e-08 
3975          -4.7455e-08   -3.32703e-08  -4.36195e-08 
4000          -4.73036e-08  -3.30715e-08  -4.34913e-08 
4025          -4.71531e-08  -3.28743e-08  -4.33638e-08 
4050          -4.70036e-08  -3.26787e-08  -4.32371e-08 
4075          -4.6855e-08   -3.24849e-08  -4.31111e-08 
4100          -4.67073e-08  -3.22927e-08  -4.29859e-08 
4125          -4.65606e-08  -3.21021e-08  -4.28614e-08 
4150          -4.64147e-08  -3.19131e-08  -4.27376e-08 
4175          -4.62698e-08  -3.17257e-08  -4.26146e-08 
4200          -4.61258e-08  -3.15398e-08  -4.24923e-08 
4225          -4.59826e-08  -3.13555e-08  -4.23706e-08 
4250          -4.58404e-08  -3.11728e-08  -4.22497e-08 
4275          -4.5699e-08   -3.09916e-08  -4.21295e-08 
4300          -4.55584e-08  -3.08118e-08  -4.201e-08   
4325          -4.54187e-08  -3.06336e-08  -4.18911e-08 
4350          -4.52799e-08  -3.04568e-08  -4.17729e-08 
4375          -4.51419e-08  -3.02815e-08  -4.16554e-08 
4400          -4.50048e-08  -3.01076e-08  -4.15386e-08 
4425          -4.48684e-08  -2.99351e-08  -4.14224e-08 
4450          -4.47329e-08  -2.97641e-08  -4.13069e-08 
4475          -4.45982e-08  -2.95944e-08  -4.1192e-08  
4500          -4.44643e-08  -2.94261e-08  -4.10778e-08 
4525          -4.43312e-08  -2.92592e-08  -4.09642e-08 
4550          -4.41989e-08  -2.90937e-08  -4.08513e-08 
4575          -4.40674e-08  -2.89294e-08  -4.0739e-08  
4600          -4.39366e-08  -2.87665e-08  -4.06273e-08 
4625          -4.38067e-08  -2.86049e-08  -4.05162e-08 
4650          -4.36774e-08  -2.84446e-08  -4.04057e-08 
4675          -4.3549e-08   -2.82856e-08  -4.02959e-08 
4700          -4.34213e-08  -2.81278e-08  -4.01866e-08 
4725          -4.32943e-08  -2.79713e-08  -4.0078e-08  
4750          -4.31681e-08  -2.78161e-08  -3.99699e-08 
4775          -4.30426e-08  -2.7662e-08   -3.98625e-08 
4800          -4.29179e-08  -2.75092e-08  -3.97556e-08 
4825          -4.27938e-08  -2.73576e-08  -3.96493e-08 
4850          -4.26705e-08  -2.72072e-08  -3.95435e-08 
4875          -4.25479e-08  -2.70579e-08  -3.94384e-08 
4900          -4.2426e-08   -2.69099e-08  -3.93338e-08 
4925          -4.23048e-08  -2.6763e-08   -3.92298e-08 
4950          -4.21842e-08  -2.66172e-08  -3.91263e-08 
4975          -4.20644e-08  -2.64725e-08  -3.90234e-08 
5000          -4.19452e-08  -2.6329e-08   -3.8921e-08  
5025          -4.18268e-08  -2.61866e-08  -3.88192e-08 
5050          -4.17089e-08  -2.60453e-08  -3.87179e-08 
5075          -4.15918e-08  -2.59051e-08  -3.86171e-08 
5100          -4.14753e-08  -2.57659e-08  -3.85169e-08 
5125          -4.13595e-08  -2.56279e-08  -3.84172e-08 
5150          -4.12443e-08  -2.54909e-08  -3.83181e-08 
5175          -4.11297e-08  -2.53549e-08  -3.82194e-08 
5200          -4.10158e-08  -2.52199e-08  -3.81213e-08 
5225          -4.09025e-08  -2.5086e-08   -3.80236e-08 
5250          -4.07899e-08  -2.49532e-08  -3.79265e-08 
5275          -4.06779e-08  -2.48213e-08  -3.78299e-08 
5300          -4.05665e-08  -2.46905e-08  -3.77338e-08 
5325          -4.04557e-08  -2.45605e-08  -3.76382e-08 
5350          -4.03455e-08  -2.44316e-08  -3.7543e-08  
5375          -4.02359e-08  -2.43036e-08  -3.74484e-08 
5400          -4.01269e-08  -2.41766e-08  -3.73542e-08 
5425          -4.00185e-08  -2.40506e-08  -3.72606e-08 
5450          -3.99108e-08  -2.39255e-08  -3.71673e-08 
5475          -3.98035e-08  -2.38013e-08  -3.70746e-08 
5500          -3.96969e-08  -2.36781e-08  -3.69824e-08 
5525          -3.95909e-08  -2.35557e-08  -3.68906e-08 
5550          -3.94854e-08  -2.34344e-08  -3.67992e-08 
5575          -3.93804e-08  -2.33138e-08  -3.67083e-08 
5600          -3.92761e-08  -2.31942e-08  -3.66179e-08 
5625          -3.91723e-08  -2.30753e-08  -3.65279e-08 
5650          -3.90691e-08  -2.29575e-08  -3.64384e-08 
5675          -3.89664e-08  -2.28404e-08  -3.63493e-08 
5700          -3.88642e-08  -2.27243e-08  -3.62607e-08 
5725          -3.87626e-08  -2.2609e-08   -3.61725e-08 
5750          -3.86616e-08  -2.24945e-08  -3.60847e-08 
5775          -3.85611e-08  -2.23808e-08  -3.59974e-08 
5800          -3.84611e-08  -2.2268e-08   -3.59105e-08 
5825          -3.83616e-08  -2.2156e-08   -3.5824e-08  
5850          -3.82627e-08  -2.20448e-08  -3.57379e-08 
5875          -3.81642e-08  -2.19344e-08  -3.56523e-08 
5900          -3.80663e-08  -2.18248e-08  -3.55671e-08 
5925          -3.79689e-08  -2.1716e-08   -3.54823e-08 
5950          -3.7872e-08   -2.1608e-08   -3.53978e-08 
5975          -3.77756e-08  -2.15008e-08  -3.53138e-08 
6000          -3.76797e-08  -2.13943e-08  -3.52302e-08 
6025          -3.75844e-08  -2.12885e-08  -3.5147e-08  
6050          -3.74894e-08  -2.11835e-08  -3.50642e-08 
6075          -3.7395e-08   -2.10792e-08  -3.49818e-08 
6100          -3.73011e-08  -2.09758e-08  -3.48998e-08 
6125          -3.72077e-08  -2.08731e-08  -3.48182e-08 
6150          -3.71147e-08  -2.0771e-08   -3.47369e-08 
6175          -3.70222e-08  -2.06697e-08  -3.46561e-08 
6200          -3.69302e-08  -2.05691e-08  -3.45756e-08 
6225          -3.68386e-08  -2.04692e-08  -3.44955e-08 
6250          -3.67476e-08  -2.037e-08    -3.44157e-08 
6275          -3.66569e-08  -2.02715e-08  -3.43364e-08 
6300          -3.65668e-08  -2.01737e-08  -3.42574e-08 
6325          -3.64771e-08  -2.00766e-08  -3.41787e-08 
6350          -3.63878e-08  -1.99802e-08  -3.41005e-08 
6375          -3.6299e-08   -1.98844e-08  -3.40226e-08 
6400          -3.62107e-08  -1.97893e-08  -3.3945e-08  
6425          -3.61227e-08  -1.96949e-08  -3.38678e-08 
6450          -3.60353e-08  -1.9601e-08   -3.3791e-08  
6475          -3.59482e-08  -1.95079e-08  -3.37145e-08 
6500          -3.58616e-08  -1.94154e-08  -3.36383e-08 
6525          -3.57754e-08  -1.93235e-08  -3.35625e-08 
6550          -3.56897e-08  -1.92323e-08  -3.34871e-08 
6575          -3.56044e-08  -1.91417e-08  -3.34119e-08 
6600          -3.55195e-08  -1.90517e-08  -3.33372e-08 
6625          -3.5435e-08   -1.89624e-08  -3.32627e-08 
6650          -3.53509e-08  -1.88736e-08  -3.31886e-08 
6675          -3.52672e-08  -1.87855e-08  -3.31148e-08 
6700          -3.5184e-08   -1.86979e-08  -3.30413e-08 
6725          -3.51012e-08  -1.8611e-08   -3.29682e-08 
6750          -3.50187e-08  -1.85246e-08  -3.28954e-08 
6775          -3.49367e-08  -1.84388e-08  -3.28229e-08 
6800          -3.48551e-08  -1.83536e-08  -3.27507e-08 
6825          -3.47738e-08  -1.8269e-08   -3.26788e-08 
6850          -3.4693e-08   -1.8185e-08   -3.26073e-08 
6875          -3.46125e-08  -1.81015e-08  -3.2536e-08  
6900          -3.45325e-08  -1.80186e-08  -3.24651e-08 
6925          -3.44528e-08  -1.79363e-08  -3.23945e-08 
6950          -3.43735e-08  -1.78545e-08  -3.23242e-08 
6975          -3.42946e-08  -1.77733e-08  -3.22541e-08 
7000          -3.4216e-08   -1.76925e-08  -3.21844e-08 
7025          -3.41379e-08  -1.76123e-08  -3.2115e-08  
7050          -3.40601e-08  -1.75327e-08  -3.20459e-08 
7075          -3.39827e-08  -1.74537e-08  -3.1977e-08  
7100          -3.39056e-08  -1.73751e-08  -3.19085e-08 
7125          -3.38289e-08  -1.7297e-08   -3.18402e-08 
7150          -3.37526e-08  -1.72195e-08  -3.17722e-08 
7175          -3.36766e-08  -1.71424e-08  -3.17045e-08 
7200          -3.3601e-08   -1.70659e-08  -3.16371e-08 
7225          -3.35258e-08  -1.699e-08    -3.157e-08   
7250          -3.34509e-08  -1.69145e-08  -3.15032e-08 
7275          -3.33763e-08  -1.68395e-08  -3.14366e-08 
7300          -3.33021e-08  -1.6765e-08   -3.13703e-08 
7325          -3.32282e-08  -1.6691e-08   -3.13043e-08 
7350          -3.31547e-08  -1.66175e-08  -3.12385e-08 
7375          -3.30816e-08  -1.65444e-08  -3.1173e-08  
7400          -3.30087e-08  -1.64718e-08  -3.11078e-08 
7425          -3.29362e-08  -1.63998e-08  -3.10428e-08 
7450          -3.28641e-08  -1.63281e-08  -3.09781e-08 
7475          -3.27922e-08  -1.6257e-08   -3.09137e-08 
7500          -3.27207e-08  -1.61863e-08  -3.08495e-08 
7525          -3.26496e-08  -1.61161e-08  -3.07856e-08 
7550          -3.25787e-08  -1.60463e-08  -3.07219e-08 
7575          -3.25082e-08  -1.5977e-08   -3.06585e-08 
7600          -3.2438e-08   -1.59082e-08  -3.05953e-08 
7625          -3.23681e-08  -1.58396e-08  -3.05324e-08 
7650          -3.22985e-08  -1.57717e-08  -3.04697e-08 
7675          -3.22293e-08  -1.57042e-08  -3.04073e-08 
7700          -3.21603e-08  -1.56372e-08  -3.03451e-08 
7725          -3.20917e-08  -1.55705e-08  -3.02832e-08 
7750          -3.20234e-08  -1.55043e-08  -3.02215e-08 
7775          -3.19554e-08  -1.54385e-08  -3.016e-08   
7800          -3.18876e-08  -1.53731e-08  -3.00988e-08 
7825          -3.18202e-08  -1.53081e-08  -3.00378e-08 
7850          -3.17531e-08  -1.52436e-08  -2.99771e-08 
7875          -3.16863e-08  -1.51795e-08  -2.99165e-08 
7900          -3.16198e-08  -1.51158e-08  -2.98562e-08 
7925          -3.15535e-08  -1.50525e-08  -2.97962e-08 
7950          -3.14876e-08  -1.49896e-08  -2.97363e-08 
7975          -3.1422e-08   -1.49271e-08  -2.96767e-08 
8000          -3.13566e-08  -1.4865e-08   -2.96173e-08 
8025          -3.12915e-08  -1.48033e-08  -2.95582e-08 
8050          -3.12267e-08  -1.4742e-08   -2.94992e-08 
8075          -3.11622e-08  -1.46811e-08  -2.94405e-08 
8100          -3.1098e-08   -1.46206e-08  -2.9382e-08  
8125          -3.1034e-08   -1.45604e-08  -2.93237e-08 
8150          -3.09704e-08  -1.45006e-08  -2.92656e-08 
8175          -3.0907e-08   -1.44412e-08  -2.92077e-08 
8200          -3.08438e-08  -1.43823e-08  -2.915e-08   
8225          -3.0781e-08   -1.43237e-08  -2.90926e-08 
8250          -3.07184e-08  -1.42654e-08  -2.90353e-08 
8275          -3.06561e-08  -1.42075e-08  -2.89783e-08 
8300          -3.0594e-08   -1.415e-08    -2.89214e-08 
8325          -3.05322e-08  -1.40929e-08  -2.88648e-08 
8350          -3.04707e-08  -1.4036e-08   -2.88084e-08 
8375          -3.04094e-08  -1.39796e-08  -2.87521e-08 
8400          -3.03484e-08  -1.39235e-08  -2.86961e-08 
8425          -3.02876e-08  -1.38678e-08  -2.86403e-08 
8450          -3.02271e-08  -1.38124e-08  -2.85846e-08 
8475          -3.01668e-08  -1.37574e-08  -2.85292e-08 
8500          -3.01068e-08  -1.37028e-08  -2.84739e-08 
8525          -3.0047e-08   -1.36484e-08  -2.84189e-08 
8550          -2.99875e-08  -1.35945e-08  -2.8364e-08  
8575          -2.99282e-08  -1.35408e-08  -2.83093e-08 
8600          -2.98692e-08  -1.34875e-08  -2.82548e-08 
8625          -2.98104e-08  -1.34345e-08  -2.82005e-08 
8650          -2.97519e-08  -1.33819e-08  -2.81464e-08 
8675          -2.96935e-08  -1.33295e-08  -2.80924e-08 
8700          -2.96355e-08  -1.32776e-08  -2.80387e-08 
8725          -2.95776e-08  -1.32259e-08  -2.79851e-08 
8750          -2.952e-08    -1.31745e-08  -2.79317e-08 
8775          -2.94626e-08  -1.31235e-08  -2.78785e-08 
8800          -2.94055e-08  -1.30728e-08  -2.78254e-08 
8825          -2.93485e-08  -1.30224e-08  -2.77725e-08 
8850          -2.92918e-08  -1.29724e-08  -2.77198e-08 
8875          -2.92354e-08  -1.29226e-08  -2.76673e-08 
8900          -2.91791e-08  -1.28732e-08  -2.7615e-08  
8925          -2.91231e-08  -1.2824e-08   -2.75628e-08 
8950          -2.90672e-08  -1.27752e-08  -2.75108e-08 
8975          -2.90116e-08  -1.27267e-08  -2.74589e-08 
9000          -2.89563e-08  -1.26784e-08  -2.74073e-08 
9025          -2.89011e-08  -1.26305e-08  -2.73558e-08 
9050          -2.88461e-08  -1.25828e-08  -2.73044e-08 
9075          -2.87914e-08  -1.25355e-08  -2.72532e-08 
9100          -2.87368e-08  -1.24885e-08  -2.72022e-08 
9125          -2.86825e-08  -1.24417e-08  -2.71514e-08 
9150          -2.86284e-08  -1.23953e-08  -2.71007e-08 
9175          -2.85744e-08  -1.23491e-08  -2.70501e-08 
9200          -2.85207e-08  -1.23032e-08  -2.69997e-08 
9225          -2.84672e-08  -1.22576e-08  -2.69495e-08 
9250          -2.84139e-08  -1.22123e-08  -2.68994e-08 
9275          -2.83607e-08  -1.21673e-08  -2.68495e-08 
9300          -2.83078e-08  -1.21225e-08  -2.67998e-08 
9325          -2.82551e-08  -1.20781e-08  -2.67502e-08 
9350          -2.82025e-08  -1.20339e-08  -2.67007e-08 
9375          -2.81502e-08  -1.19899e-08  -2.66514e-08 
9400          -2.8098e-08   -1.19463e-08  -2.66023e-08 
9425          -2.80461e-08  -1.19029e-08  -2.65532e-08 
9450          -2.79943e-08  -1.18598e-08  -2.65044e-08 
9475          -2.79427e-08  -1.18169e-08  -2.64557e-08 
9500          -2.78912e-08  -1.17743e-08  -2.64071e-08 
9525          -2.784e-08    -1.1732e-08   -2.63587e-08 
9550          -2.7789e-08   -1.169e-08    -2.63104e-08 
9575          -2.77381e-08  -1.16481e-08  -2.62623e-08 
9600          -2.76874e-08  -1.16066e-08  -2.62143e-08 
9625          -2.76369e-08  -1.15653e-08  -2.61664e-08 
9650          -2.75865e-08  -1.15243e-08  -2.61187e-08 
9675          -2.75363e-08  -1.14835e-08  -2.60711e-08 
9700          -2.74864e-08  -1.1443e-08   -2.60237e-08 
9725          -2.74365e-08  -1.14027e-08  -2.59764e-08 
9750          -2.73869e-08  -1.13627e-08  -2.59292e-08 
9775          -2.73374e-08  -1.13229e-08  -2.58822e-08 
9800          -2.7288e-08   -1.12834e-08  -2.58353e-08 
9825          -2.72389e-08  -1.12441e-08  -2.57885e-08 
9850          -2.71899e-08  -1.1205e-08   -2.57419e-08 
9875          -2.71411e-08  -1.11662e-08  -2.56954e-08 
9900          -2.70924e-08  -1.11277e-08  -2.5649e-08  
9925          -2.70439e-08  -1.10893e-08  -2.56027e-08 
9950          -2.69955e-08  -1.10512e-08  -2.55566e-08 
9975          -2.69473e-08  -1.10134e-08  -2.55106e-08 
10000         -2.68993e-08  -1.09757e-08  -2.54648e-08 
10025         -2.68514e-08  -1.09384e-08  -2.5419e-08  
10050         -2.68036e-08  -1.09012e-08  -2.53734e-08 
10075         -2.67561e-08  -1.08643e-08  -2.53279e-08 
10100         -2.67086e-08  -1.08276e-08  -2.52826e-08 
10125         -2.66613e-08  -1.07911e-08  -2.52373e-08 
10150         -2.66142e-08  -1.07549e-08  -2.51922e-08 
10175         -2.65672e-08  -1.07188e-08  -2.51472e-08 
10200         -2.65204e-08  -1.0683e-08   -2.51023e-08 
10225         -2.64737e-08  -1.06474e-08  -2.50576e-08 
10250         -2.64271e-08  -1.06121e-08  -2.5013e-08  
10275         -2.63807e-08  -1.05769e-08  -2.49684e-08 
10300         -2.63344e-08  -1.0542e-08   -2.4924e-08  
10325         -2.62882e-08  -1.05073e-08  -2.48797e-08 
10350         -2.62422e-08  -1.04728e-08  -2.48356e-08 
10375         -2.61964e-08  -1.04385e-08  -2.47915e-08 
10400         -2.61506e-08  -1.04044e-08  -2.47476e-08 
10425         -2.6105e-08   -1.03706e-08  -2.47038e-08 
10450         -2.60596e-08  -1.03369e-08  -2.466e-08   
10475         -2.60142e-08  -1.03035e-08  -2.46164e-08 
10500         -2.5969e-08   -1.02702e-08  -2.4573e-08  
10525         -2.59239e-08  -1.02372e-08  -2.45296e-08 
10550         -2.5879e-08   -1.02044e-08  -2.44863e-08 
10575         -2.58342e-08  -1.01718e-08  -2.44432e-08 
10600         -2.57895e-08  -1.01393e-08  -2.44001e-08 
10625         -2.57449e-08  -1.01071e-08  -2.43572e-08 
10650         -2.57005e-08  -1.00751e-08  -2.43143e-08 
10675         -2.56561e-08  -1.00433e-08  -2.42716e-08 
10700         -2.56119e-08  -1.00117e-08  -2.4229e-08  
10725         -2.55678e-08  -9.98024e-09  -2.41865e-08 
10750         -2.55239e-08  -9.94901e-09  -2.41441e-08 
10775         -2.548e-08    -9.91797e-09  -2.41018e-08 
10800         -2.54363e-08  -9.88712e-09  -2.40596e-08 
10825         -2.53927e-08  -9.85647e-09  -2.40175e-08 
10850         -2.53492e-08  -9.826e-09    -2.39755e-08 
10875         -2.53058e-08  -9.79573e-09  -2.39336e-08 
10900         -2.52625e-08  -9.76565e-09  -2.38918e-08 
10925         -2.52193e-08  -9.73575e-09  -2.38501e-08 
10950         -2.51763e-08  -9.70604e-09  -2.38085e-08 
10975         -2.51333e-08  -9.67651e-09  -2.3767e-08  
11000         -2.50905e-08  -9.64717e-09  -2.37256e-08 
11025         -2.50478e-08  -9.61801e-09  -2.36843e-08 
11050         -2.50051e-08  -9.58903e-09  -2.36431e-08 
11075         -2.49626e-08  -9.56023e-09  -2.3602e-08  
11100         -2.49202e-08  -9.53161e-09  -2.3561e-08  
11125         -2.48779e-08  -9.50318e-09  -2.35201e-08 
11150         -2.48357e-08  -9.47491e-09  -2.34793e-08 
11175         -2.47936e-08  -9.44683e-09  -2.34386e-08 
11200         -2.47516e-08  -9.41892e-09  -2.3398e-08  
11225         -2.47097e-08  -9.39119e-09  -2.33574e-08 
11250         -2.46679e-08  -9.36363e-09  -2.3317e-08  
11275         -2.46262e-08  -9.33624e-09  -2.32767e-08 
11300         -2.45846e-08  -9.30903e-09  -2.32364e-08 
11325         -2.45431e-08  -9.28197e-09  -2.31963e-08 
11350         -2.45017e-08  -9.2551e-09   -2.31562e-08 
11375         -2.44603e-08  -9.22839e-09  -2.31162e-08 
11400         -2.44191e-08  -9.20186e-09  -2.30763e-08 
11425         -2.4378e-08   -9.17549e-09  -2.30365e-08 
11450         -2.43369e-08  -9.14929e-09  -2.29968e-08 
11475         -2.4296e-08   -9.12325e-09  -2.29572e-08 
11500         -2.42551e-08  -9.09737e-09  -2.29177e-08 
11525         -2.42144e-08  -9.07166e-09  -2.28783e-08 
11550         -2.41737e-08  -9.04611e-09  -2.28389e-08 
11575         -2.41331e-08  -9.02072e-09  -2.27996e-08 
11600         -2.40926e-08  -8.99549e-09  -2.27605e-08 
11625         -2.40522e-08  -8.97042e-09  -2.27214e-08 
11650         -2.40118e-08  -8.9455e-09   -2.26824e-08 
11675         -2.39716e-08  -8.92076e-09  -2.26434e-08 
11700         -2.39314e-08  -8.89616e-09  -2.26046e-08 
11725         -2.38914e-08  -8.87172e-09  -2.25659e-08 
11750         -2.38514e-08  -8.84744e-09  -2.25272e-08 
11775         -2.38114e-08  -8.82331e-09  -2.24886e-08 
11800         -2.37716e-08  -8.79932e-09  -2.24501e-08 
11825         -2.37319e-08  -8.7755e-09   -2.24117e-08 
11850         -2.36922e-08  -8.75183e-09  -2.23734e-08 
11875         -2.36526e-08  -8.7283e-09   -2.23351e-08 
11900         -2.36131e-08  -8.70493e-09  -2.22969e-08 
11925         -2.35737e-08  -8.68171e-09  -2.22588e-08 
11950         -2.35343e-08  -8.65864e-09  -2.22208e-08 
11975         -2.34951e-08  -8.63572e-09  -2.21829e-08 
12000         -2.34559e-08  -8.61292e-09  -2.21451e-08 
12025         -2.34167e-08  -8.5903e-09   -2.21073e-08 
12050         -2.33777e-08  -8.56781e-09  -2.20696e-08 
12075         -2.33387e-08  -8.54547e-09  -2.2032e-08  
12100         -2.32998e-08  -8.52325e-09  -2.19944e-08 
12125         -2.3261e-08   -8.5012e-09   -2.1957e-08  
12150         -2.32223e-08  -8.47928e-09  -2.19196e-08 
12175         -2.31836e-08  -8.4575e-09   -2.18823e-08 
12200         -2.3145e-08   -8.43588e-09  -2.18451e-08 
12225         -2.31065e-08  -8.41438e-09  -2.18079e-08 
12250         -2.3068e-08   -8.39303e-09  -2.17709e-08 
12275         -2.30296e-08  -8.37174e-09  -2.17339e-08 
12300         -2.29913e-08  -8.35072e-09  -2.16969e-08 
12325         -2.29531e-08  -8.32978e-09  -2.16601e-08 
12350         -2.29149e-08  -8.30897e-09  -2.16233e-08 
12375         -2.28768e-08  -8.2883e-09   -2.15866e-08 
12400         -2.28387e-08  -8.26776e-09  -2.155e-08   
12425         -2.28007e-08  -8.24735e-09  -2.15135e-08 
12450         -2.27628e-08  -8.22707e-09  -2.1477e-08  
12475         -2.2725e-08   -8.20692e-09  -2.14406e-08 
12500         -2.26872e-08  -8.18691e-09  -2.14042e-08 
12525         -2.26495e-08  -8.16703e-09  -2.1368e-08  
12550         -2.26119e-08  -8.14728e-09  -2.13318e-08 
12575         -2.25743e-08  -8.12766e-09  -2.12957e-08 
12600         -2.25368e-08  -8.10821e-09  -2.12596e-08 
12625         -2.24994e-08  -8.08885e-09  -2.12237e-08 
12650         -2.2462e-08   -8.06959e-09  -2.11878e-08 
12675         -2.24247e-08  -8.05046e-09  -2.11519e-08 
12700         -2.23874e-08  -8.03148e-09  -2.11162e-08 
12725         -2.23502e-08  -8.01265e-09  -2.10805e-08 
12750         -2.23131e-08  -7.9939e-09   -2.10448e-08 
12775         -2.2276e-08   -7.97528e-09  -2.10093e-08 
12800         -2.2239e-08   -7.95679e-09  -2.09738e-08 
12825         -2.22021e-08  -7.93843e-09  -2.09384e-08 
12850         -2.21652e-08  -7.92018e-09  -2.0903e-08  
12875         -2.21284e-08  -7.90206e-09  -2.08677e-08 
12900         -2.20916e-08  -7.88406e-09  -2.08325e-08 
12925         -2.20549e-08  -7.86618e-09  -2.07974e-08 
12950         -2.20183e-08  -7.84841e-09  -2.07623e-08 
12975         -2.19817e-08  -7.83077e-09  -2.07273e-08 
13000         -2.19452e-08  -7.81324e-09  -2.06923e-08 
13025         -2.19087e-08  -7.79579e-09  -2.06575e-08 
13050         -2.18723e-08  -7.77857e-09  -2.06226e-08 
13075         -2.1836e-08   -7.76137e-09  -2.05879e-08 
13100         -2.17997e-08  -7.7443e-09   -2.05532e-08 
13125         -2.17635e-08  -7.72739e-09  -2.05186e-08 
13150         -2.17273e-08  -7.71056e-09  -2.0484e-08  
13175         -2.16912e-08  -7.69382e-09  -2.04495e-08 
13200         -2.16552e-08  -7.67723e-09  -2.04151e-08 
13225         -2.16192e-08  -7.66072e-09  -2.03807e-08 
13250         -2.15832e-08  -7.64433e-09  -2.03464e-08 
13275         -2.15474e-08  -7.62806e-09  -2.03122e-08 
13300         -2.15115e-08  -7.6119e-09   -2.0278e-08  
13325         -2.14758e-08  -7.59585e-09  -2.02439e-08 