# Probe 0 (0.4 0.05 0)
# Probe 1 (0.55 0.55 0)
# Probe 2 (0.55 0.02 0)
# Time        0             1             2            
25            79.3508       79.7494       76.3747      
50            79.3083       79.5232       76.358       
75            79.2663       79.2992       76.3414      
100           79.2247       79.0775       76.325       
125           79.1835       78.8578       76.3089      
150           79.1427       78.6403       76.2928      
175           79.1023       78.4249       76.277       
200           79.0623       78.2116       76.2613      
225           79.0227       78.0003       76.2458      
250           78.9835       77.791        76.2304      
275           78.9446       77.5836       76.2152      
300           78.9061       77.3782       76.2001      
325           78.868        77.1748       76.1852      
350           78.8303       76.9732       76.1704      
375           78.7929       76.7735       76.1557      
400           78.7558       76.5756       76.1412      
425           78.7191       76.3795       76.1268      
450           78.6827       76.1852       76.1126      
475           78.6466       75.9927       76.0985      
500           78.6109       75.8019       76.0845      
525           78.5755       75.6129       76.0706      
550           78.5404       75.4255       76.0569      
575           78.5057       75.2398       76.0433      
600           78.4712       75.0558       76.0298      
625           78.437        74.8733       76.0164      
650           78.4032       74.6925       76.0031      
675           78.3696       74.5133       75.99        
700           78.3363       74.3356       75.977       
725           78.3034       74.1595       75.9641      
750           78.2707       73.9849       75.9513      
775           78.2382       73.8118       75.9386      
800           78.2061       73.6401       75.926       
825           78.1742       73.47         75.9135      
850           78.1426       73.3013       75.9011      
875           78.1113       73.134        75.8889      
900           78.0802       72.9681       75.8767      
925           78.0495       72.8036       75.8646      
950           78.0189       72.6405       75.8527      
975           77.9886       72.4787       75.8408      
1000          77.9586       72.3183       75.8291      
1025          77.9288       72.1592       75.8174      
1050          77.8992       72.0014       75.8058      
1075          77.8699       71.845        75.7944      
1100          77.8409       71.6898       75.783       
1125          77.812        71.5358       75.7717      
1150          77.7835       71.3831       75.7605      
1175          77.7551       71.2316       75.7494      
1200          77.727        71.0814       75.7384      
1225          77.699        70.9323       75.7275      
1250          77.6714       70.7844       75.7166      
1275          77.6439       70.6377       75.7059      
1300          77.6166       70.4922       75.6952      
1325          77.5896       70.3478       75.6846      
1350          77.5628       70.2045       75.6741      
1375          77.5361       70.0624       75.6637      
1400          77.5097       69.9213       75.6533      
1425          77.4835       69.7814       75.6431      
1450          77.4575       69.6425       75.6329      
1475          77.4317       69.5047       75.6228      
1500          77.4061       69.368        75.6128      
1525          77.3807       69.2322       75.6028      
1550          77.3555       69.0976       75.5929      
1575          77.3304       68.9639       75.5831      
1600          77.3056       68.8313       75.5734      
1625          77.2809       68.6996       75.5637      
1650          77.2564       68.5689       75.5541      
1675          77.2321       68.4392       75.5446      
1700          77.208        68.3105       75.5352      
1725          77.1841       68.1827       75.5258      
1750          77.1603       68.0559       75.5165      
1775          77.1368       67.9299       75.5073      
1800          77.1133       67.805        75.4981      
1825          77.0901       67.6809       75.489       
1850          77.067        67.5577       75.4799      
1875          77.0441       67.4354       75.471       
1900          77.0214       67.314        75.4621      
1925          76.9988       67.1935       75.4532      
1950          76.9764       67.0739       75.4444      
1975          76.9541       66.955        75.4357      
2000          76.932        66.8371       75.427       
2025          76.9101       66.7199       75.4184      
2050          76.8883       66.6037       75.4099      
2075          76.8666       66.4882       75.4014      
2100          76.8452       66.3735       75.393       
2125          76.8238       66.2596       75.3846      
2150          76.8026       66.1466       75.3763      
2175          76.7816       66.0343       75.3681      
2200          76.7607       65.9227       75.3599      
2225          76.7399       65.812        75.3518      
2250          76.7193       65.702        75.3437      
2275          76.6988       65.5928       75.3357      
2300          76.6785       65.4843       75.3277      
2325          76.6583       65.3765       75.3198      
2350          76.6383       65.2695       75.3119      
2375          76.6183       65.1632       75.3041      
2400          76.5985       65.0576       75.2963      
2425          76.5789       64.9527       75.2886      
2450          76.5593       64.8485       75.2809      
2475          76.5399       64.7451       75.2733      
2500          76.5207       64.6423       75.2658      
2525          76.5015       64.5401       75.2583      
2550          76.4825       64.4387       75.2508      
2575          76.4636       64.338        75.2434      
2600          76.4449       64.2379       75.236       
2625          76.4262       64.1383       75.2287      
2650          76.4077       64.0395       75.2214      
2675          76.3892       63.9414       75.2142      
2700          76.371        63.8439       75.207       
2725          76.3528       63.747        75.1999      
2750          76.3347       63.6507       75.1928      
2775          76.3168       63.555        75.1858      
2800          76.2989       63.4599       75.1788      
2825          76.2812       63.3655       75.1718      
2850          76.2636       63.2716       75.1649      
2875          76.2461       63.1784       75.158       
2900          76.2288       63.0857       75.1512      
2925          76.2115       62.9936       75.1444      
2950          76.1943       62.9021       75.1377      
2975          76.1772       62.8111       75.131       
3000          76.1603       62.7208       75.1243      
3025          76.1434       62.6309       75.1177      
3050          76.1267       62.5417       75.1111      
3075          76.11         62.453        75.1046      
3100          76.0935       62.3648       75.0981      
3125          76.077        62.2772       75.0916      
3150          76.0607       62.1901       75.0852      
3175          76.0444       62.1035       75.0788      
3200          76.0283       62.0175       75.0724      
3225          76.0122       61.932        75.0661      
3250          75.9963       61.847        75.0599      
3275          75.9804       61.7625       75.0536      
3300          75.9646       61.6785       75.0474      
3325          75.9489       61.595        75.0412      
3350          75.9334       61.5121       75.0351      
3375          75.9179       61.4296       75.029       
3400          75.9025       61.3476       75.023       
3425          75.8871       61.2661       75.0169      
3450          75.8719       61.185        75.011       
3475          75.8568       61.1045       75.005       
3500          75.8417       61.0244       74.9991      
3525          75.8268       60.9448       74.9932      
3550          75.8119       60.8656       74.9873      
3575          75.7971       60.7869       74.9815      
3600          75.7824       60.7087       74.9757      
3625          75.7678       60.6309       74.97        
3650          75.7532       60.5536       74.9642      
3675          75.7388       60.4767       74.9585      
3700          75.7244       60.4002       74.9529      
3725          75.7101       60.3242       74.9472      
3750          75.6959       60.2486       74.9416      
3775          75.6818       60.1735       74.9361      
3800          75.6677       60.0987       74.9305      
3825          75.6537       60.0244       74.925       
3850          75.6398       59.9505       74.9195      
3875          75.626        59.877        74.9141      
3900          75.6122       59.804        74.9087      
3925          75.5986       59.7313       74.9033      
3950          75.585        59.6591       74.8979      
3975          75.5714       59.5872       74.8926      
4000          75.558        59.5158       74.8873      
4025          75.5446       59.4447       74.882       
4050          75.5313       59.374        74.8767      
4075          75.5181       59.3037       74.8715      
4100          75.5049       59.2338       74.8663      
4125          75.4918       59.1643       74.8612      
4150          75.4788       59.0952       74.856       
4175          75.4658       59.0264       74.8509      
4200          75.4529       58.958        74.8458      
4225          75.4401       58.89         74.8407      
4250          75.4274       58.8223       74.8357      
4275          75.4147       58.755        74.8307      
4300          75.402        58.6881       74.8257      
4325          75.3895       58.6215       74.8207      
4350          75.377        58.5553       74.8158      
4375          75.3646       58.4894       74.8109      
4400          75.3522       58.4239       74.806       
4425          75.3399       58.3587       74.8011      
4450          75.3277       58.2939       74.7963      
4475          75.3155       58.2294       74.7915      
4500          75.3034       58.1652       74.7867      
4525          75.2913       58.1014       74.7819      
4550          75.2793       58.0379       74.7772      
4575          75.2674       57.9747       74.7725      
4600          75.2555       57.9119       74.7678      
4625          75.2437       57.8494       74.7631      
4650          75.232        57.7872       74.7584      
4675          75.2203       57.7254       74.7538      
4700          75.2087       57.6638       74.7492      
4725          75.1971       57.6026       74.7446      
4750          75.1856       57.5416       74.74        
4775          75.1741       57.481        74.7355      
4800          75.1627       57.4207       74.731       
4825          75.1513       57.3607       74.7265      
4850          75.14         57.301        74.722       
4875          75.1288       57.2416       74.7175      
4900          75.1176       57.1825       74.7131      
4925          75.1065       57.1237       74.7087      
4950          75.0954       57.0652       74.7043      
4975          75.0843       57.007        74.6999      
5000          75.0734       56.949        74.6955      
5025          75.0624       56.8914       74.6912      
5050          75.0516       56.834        74.6869      
5075          75.0407       56.7769       74.6826      
5100          75.03         56.7202       74.6783      
5125          75.0192       56.6636       74.674       
5150          75.0086       56.6074       74.6698      
5175          74.9979       56.5514       74.6656      
5200          74.9874       56.4957       74.6614      
5225          74.9768       56.4403       74.6572      
5250          74.9664       56.3852       74.653       
5275          74.9559       56.3303       74.6489      
5300          74.9456       56.2756       74.6447      
5325          74.9352       56.2213       74.6406      
5350          74.9249       56.1672       74.6365      
5375          74.9147       56.1133       74.6324      
5400          74.9045       56.0598       74.6284      
5425          74.8943       56.0064       74.6243      
5450          74.8842       55.9534       74.6203      
5475          74.8742       55.9006       74.6163      
5500          74.8642       55.848        74.6123      
5525          74.8542       55.7956       74.6083      
5550          74.8443       55.7435       74.6044      
5575          74.8344       55.6917       74.6004      
5600          74.8245       55.6401       74.5965      
5625          74.8147       55.5887       74.5926      
5650          74.805        55.5376       74.5887      
5675          74.7953       55.4868       74.5848      
5700          74.7856       55.4361       74.581       
5725          74.776        55.3858       74.5771      
5750          74.7664       55.3355       74.5733      
5775          74.7568       55.2856       74.5695      
5800          74.7473       55.2359       74.5657      
5825          74.7378       55.1864       74.5619      
5850          74.7284       55.1371       74.5581      
5875          74.719        55.0881       74.5544      
5900          74.7097       55.0392       74.5506      
5925          74.7004       54.9906       74.5469      
5950          74.6911       54.9423       74.5432      
5975          74.6819       54.8942       74.5395      
6000          74.6727       54.8462       74.5358      
6025          74.6635       54.7985       74.5322      
6050          74.6544       54.7509       74.5285      
6075          74.6453       54.7036       74.5249      
6100          74.6362       54.6566       74.5213      
6125          74.6272       54.6097       74.5176      
6150          74.6182       54.563        74.514       
6175          74.6093       54.5165       74.5105      
6200          74.6004       54.4703       74.5069      
6225          74.5915       54.4242       74.5033      
6250          74.5827       54.3784       74.4998      
6275          74.5739       54.3327       74.4963      
6300          74.5651       54.2872       74.4927      
6325          74.5564       54.242        74.4892      
6350          74.5477       54.197        74.4858      
6375          74.539        54.1521       74.4823      
6400          74.5304       54.1074       74.4788      
6425          74.5218       54.0629       74.4754      
6450          74.5132       54.0186       74.4719      
6475          74.5047       53.9745       74.4685      
6500          74.4962       53.9306       74.4651      
6525          74.4877       53.8868       74.4617      
6550          74.4793       53.8433       74.4583      
6575          74.4709       53.8          74.4549      
6600          74.4625       53.7568       74.4515      
6625          74.4541       53.7138       74.4482      
6650          74.4458       53.671        74.4448      
6675          74.4375       53.6284       74.4415      
6700          74.4293       53.5859       74.4382      
6725          74.421        53.5437       74.4349      
6750          74.4129       53.5016       74.4316      
6775          74.4047       53.4597       74.4283      
6800          74.3966       53.4179       74.425       
6825          74.3884       53.3764       74.4217      
6850          74.3804       53.335        74.4185      
6875          74.3723       53.2938       74.4153      
6900          74.3643       53.2527       74.412       
6925          74.3563       53.2118       74.4088      
6950          74.3483       53.1711       74.4056      
6975          74.3404       53.1306       74.4024      
7000          74.3325       53.0902       74.3992      
7025          74.3246       53.05         74.396       
7050          74.3167       53.0099       74.3929      
7075          74.3089       52.9701       74.3897      
7100          74.3011       52.9303       74.3866      
7125          74.2933       52.8908       74.3834      
7150          74.2856       52.8513       74.3803      
7175          74.2778       52.812        74.3772      
7200          74.2701       52.7729       74.3741      
7225          74.2624       52.734        74.371       
7250          74.2548       52.6953       74.3679      
7275          74.2472       52.6567       74.3648      
7300          74.2396       52.6182       74.3617      
7325          74.232        52.5799       74.3587      
7350          74.2244       52.5417       74.3556      
7375          74.2169       52.5037       74.3526      
7400          74.2094       52.4658       74.3496      
7425          74.2019       52.4281       74.3465      
7450          74.1945       52.3905       74.3435      
7475          74.187        52.3531       74.3405      
7500          74.1796       52.3158       74.3375      
7525          74.1722       52.2787       74.3345      
7550          74.1649       52.2417       74.3316      
7575          74.1575       52.2048       74.3286      
7600          74.1502       52.1681       74.3256      
7625          74.1429       52.1315       74.3227      
7650          74.1356       52.0951       74.3197      
7675          74.1284       52.0588       74.3168      
7700          74.1211       52.0227       74.3139      
7725          74.1139       51.9867       74.311       
7750          74.1067       51.9508       74.3081      
7775          74.0995       51.9151       74.3052      
7800          74.0924       51.8795       74.3023      
7825          74.0853       51.844        74.2994      
7850          74.0781       51.8086       74.2965      
7875          74.0711       51.7734       74.2937      
7900          74.064        51.7384       74.2908      
7925          74.0569       51.7034       74.2879      
7950          74.0499       51.6686       74.2851      
7975          74.0429       51.634        74.2823      
8000          74.0359       51.5993       74.2794      
8025          74.0289       51.565        74.2766      
8050          74.022        51.5307       74.2738      
8075          74.0151       51.4965       74.271       
8100          74.0081       51.4625       74.2682      
8125          74.0012       51.4286       74.2654      
8150          73.9944       51.3947       74.2627      
8175          73.9875       51.361        74.2599      
8200          73.9807       51.3276       74.2571      
8225          73.9738       51.2941       74.2544      
8250          73.967        51.2608       74.2516      
8275          73.9603       51.2276       74.2489      
8300          73.9535       51.1945       74.2461      
8325          73.9467       51.1616       74.2434      
8350          73.94         51.1288       74.2407      
8375          73.9333       51.0961       74.238       
8400          73.9266       51.0635       74.2353      
8425          73.9199       51.031        74.2326      
8450          73.9132       50.9986       74.2299      
8475          73.9066       50.9664       74.2272      
8500          73.8999       50.9343       74.2245      
8525          73.8933       50.9023       74.2218      
8550          73.8867       50.8704       74.2192      
8575          73.8801       50.8386       74.2165      
8600          73.8736       50.8069       74.2139      
8625          73.867        50.7753       74.2112      
8650          73.8605       50.7439       74.2086      
8675          73.854        50.7125       74.2059      
8700          73.8474       50.6813       74.2033      
8725          73.841        50.6502       74.2007      
8750          73.8345       50.6191       74.1981      
8775          73.828        50.5882       74.1955      
8800          73.8216       50.5574       74.1929      
8825          73.8151       50.5267       74.1903      
8850          73.8087       50.4961       74.1877      
8875          73.8023       50.4656       74.1851      
8900          73.7959       50.4352       74.1826      
8925          73.7896       50.4049       74.18        
8950          73.7832       50.3747       74.1774      
8975          73.7769       50.3446       74.1749      
9000          73.7705       50.3146       74.1723      
9025          73.7642       50.2848       74.1698      
9050          73.7579       50.2549       74.1672      
9075          73.7516       50.2253       74.1647      
9100          73.7453       50.1957       74.1622      
9125          73.7391       50.1662       74.1597      
9150          73.7328       50.1368       74.1571      
9175          73.7266       50.1075       74.1546      
9200          73.7204       50.0783       74.1521      
9225          73.7142       50.0492       74.1496      
9250          73.708        50.0202       74.1472      
9275          73.7018       49.9913       74.1447      
9300          73.6956       49.9625       74.1422      
9325          73.6894       49.9338       74.1397      
9350          73.6833       49.9051       74.1372      
9375          73.6772       49.8766       74.1348      
9400          73.671        49.8482       74.1323      
9425          73.6649       49.8198       74.1299      
9450          73.6588       49.7916       74.1274      
9475          73.6528       49.7634       74.125       
9500          73.6467       49.7353       74.1226      
9525          73.6406       49.7073       74.1201      
9550          73.6346       49.6794       74.1177      
9575          73.6285       49.6516       74.1153      
9600          73.6225       49.6239       74.1129      
9625          73.6165       49.5962       74.1105      
9650          73.6105       49.5687       74.1081      
9675          73.6045       49.5412       74.1057      
9700          73.5985       49.5138       74.1033      
9725          73.5925       49.4865       74.1009      
9750          73.5866       49.4594       74.0985      
9775          73.5806       49.4322       74.0961      
9800          73.5747       49.4052       74.0938      
9825          73.5688       49.3782       74.0914      
9850          73.5629       49.3514       74.089       
9875          73.557        49.3246       74.0867      
9900          73.5511       49.2979       74.0843      
9925          73.5452       49.2713       74.082       
9950          73.5393       49.2447       74.0797      
9975          73.5335       49.2183       74.0773      
10000         73.5276       49.1918       74.075       
10025         73.5218       49.1656       74.0727      
10050         73.516        49.1393       74.0703      
10075         73.5102       49.1132       74.068       
10100         73.5043       49.0871       74.0657      
10125         73.4986       49.0611       74.0634      
10150         73.4928       49.0352       74.0611      
10175         73.487        49.0094       74.0588      
10200         73.4812       48.9836       74.0565      
10225         73.4755       48.958        74.0542      
10250         73.4697       48.9324       74.052       
10275         73.464        48.9068       74.0497      
10300         73.4583       48.8814       74.0474      
10325         73.4525       48.856        74.0451      
10350         73.4468       48.8307       74.0429      
10375         73.4411       48.8055       74.0406      
10400         73.4355       48.7803       74.0384      
10425         73.4298       48.7552       74.0361      
10450         73.4241       48.7302       74.0339      
10475         73.4185       48.7052       74.0316      
10500         73.4128       48.6804       74.0294      
10525         73.4072       48.6556       74.0272      
10550         73.4015       48.6308       74.025       
10575         73.3959       48.6062       74.0227      
10600         73.3903       48.5816       74.0205      
10625         73.3847       48.5571       74.0183      
10650         73.3791       48.5326       74.0161      
10675         73.3735       48.5082       74.0139      
10700         73.368        48.4839       74.0117      
10725         73.3624       48.4597       74.0095      
10750         73.3568       48.4355       74.0073      
10775         73.3513       48.4114       74.0051      
10800         73.3458       48.3874       74.0029      
10825         73.3402       48.3634       74.0008      
10850         73.3347       48.3395       73.9986      
10875         73.3292       48.3156       73.9964      
10900         73.3237       48.2918       73.9943      
10925         73.3182       48.2681       73.9921      
10950         73.3127       48.2445       73.9899      
10975         73.3073       48.2209       73.9878      
11000         73.3018       48.1974       73.9857      
11025         73.2963       48.1739       73.9835      
11050         73.2909       48.1505       73.9814      
11075         73.2854       48.1272       73.9792      
11100         73.28         48.1039       73.9771      
11125         73.2746       48.0807       73.975       
11150         73.2692       48.0576       73.9729      
11175         73.2638       48.0345       73.9707      
11200         73.2584       48.0114       73.9686      
11225         73.253        47.9885       73.9665      
11250         73.2476       47.9656       73.9644      
11275         73.2422       47.9427       73.9623      
11300         73.2369       47.92         73.9602      
11325         73.2315       47.8972       73.9581      
11350         73.2262       47.8746       73.956       
11375         73.2208       47.8519       73.954       
11400         73.2155       47.8294       73.9519      
11425         73.2102       47.8069       73.9498      
11450         73.2049       47.7845       73.9477      
11475         73.1996       47.7621       73.9457      
11500         73.1943       47.7398       73.9436      
11525         73.189        47.7175       73.9415      
11550         73.1837       47.6953       73.9395      
11575         73.1785       47.6732       73.9374      
11600         73.1732       47.6511       73.9354      
11625         73.168        47.629        73.9333      
11650         73.1627       47.607        73.9313      
11675         73.1575       47.5851       73.9293      
11700         73.1523       47.5632       73.9272      
11725         73.147        47.5414       73.9252      
11750         73.1418       47.5196       73.9232      
11775         73.1366       47.4979       73.9212      
11800         73.1314       47.4762       73.9191      
11825         73.1262       47.4547       73.9171      
11850         73.1211       47.4331       73.9151      
11875         73.1159       47.4116       73.9131      
11900         73.1107       47.3901       73.9111      
11925         73.1056       47.3687       73.9091      
11950         73.1004       47.3474       73.9071      
11975         73.0953       47.3261       73.9051      
12000         73.0902       47.3048       73.9032      
12025         73.0851       47.2837       73.9012      
12050         73.08         47.2625       73.8992      
12075         73.0748       47.2414       73.8972      
12100         73.0697       47.2203       73.8953      
12125         73.0647       47.1994       73.8933      
12150         73.0596       47.1784       73.8913      
12175         73.0545       47.1575       73.8894      
12200         73.0495       47.1367       73.8874      
12225         73.0444       47.1159       73.8855      
12250         73.0394       47.0951       73.8835      
12275         73.0343       47.0744       73.8816      
12300         73.0293       47.0538       73.8796      
12325         73.0243       47.0331       73.8777      
12350         73.0193       47.0126       73.8758      
12375         73.0143       46.9921       73.8738      
12400         73.0093       46.9716       73.8719      
12425         73.0043       46.9511       73.87        
12450         72.9993       46.9308       73.8681      
12475         72.9943       46.9104       73.8661      
12500         72.9893       46.8901       73.8642      
12525         72.9844       46.8699       73.8623      
12550         72.9794       46.8497       73.8604      
12575         72.9745       46.8295       73.8585      
12600         72.9696       46.8095       73.8566      
12625         72.9647       46.7894       73.8547      
12650         72.9597       46.7693       73.8528      
12675         72.9548       46.7493       73.851       
12700         72.9499       46.7294       73.8491      
12725         72.945        46.7096       73.8472      
12750         72.9401       46.6897       73.8453      
12775         72.9353       46.6699       73.8434      
12800         72.9304       46.6501       73.8416      
12825         72.9255       46.6304       73.8397      
12850         72.9207       46.6107       73.8379      
12875         72.9158       46.591        73.836       
12900         72.911        46.5714       73.8341      
12925         72.9062       46.5519       73.8323      
12950         72.9014       46.5324       73.8304      
12975         72.8966       46.5129       73.8286      
13000         72.8917       46.4934       73.8268      
13025         72.887        46.474        73.8249      
13050         72.8822       46.4548       73.8231      
13075         72.8774       46.4354       73.8213      
13100         72.8726       46.4161       73.8194      
13125         72.8679       46.3969       73.8176      
13150         72.8631       46.3777       73.8158      
13175         72.8584       46.3585       73.814       
13200         72.8536       46.3395       73.8122      
13225         72.8489       46.3203       73.8104      
13250         72.8442       46.3013       73.8086      
13275         72.8395       46.2823       73.8068      
13300         72.8348       46.2633       73.805       
13325         72.8301       46.2443       73.8032      