# Probe 0 (0.4 0.05 0)
# Probe 1 (0.55 0.55 0)
# Probe 2 (0.55 0.02 0)
# Time        0             1             2            
25            (-5.12409e-09 3.95424e-06 -4.81017e-28) (-9.46137e-10 3.96956e-06 2.846e-28) (-1.07389e-08 3.96593e-06 3.61978e-31)
50            (2.96965e-10 4.73062e-06 -5.40475e-28) (-5.29842e-10 4.7315e-06 4.34001e-28) (3.51865e-09 4.70395e-06 2.57507e-31)
75            (-2.81934e-09 4.84695e-06 -5.50058e-28) (-3.66657e-10 4.84534e-06 4.62231e-28) (-5.5538e-09 4.83358e-06 -2.97652e-31)
100           (-6.97428e-10 4.8535e-06 -5.45138e-28) (-3.51712e-10 4.84199e-06 4.65174e-28) (-1.46651e-09 4.82892e-06 -3.14882e-33)
125           (-2.43468e-09 4.8324e-06 -5.39312e-28) (-2.72638e-10 4.81947e-06 4.6349e-28) (-6.03161e-09 4.8154e-06 -2.09015e-31)
150           (-1.56976e-09 4.81233e-06 -5.32206e-28) (-2.31612e-10 4.79427e-06 4.61005e-28) (-4.42609e-09 4.78996e-06 -6.23081e-32)
175           (-2.59262e-09 4.78849e-06 -5.25792e-28) (-1.52128e-10 4.76926e-06 4.58409e-28) (-6.74296e-09 4.76978e-06 -1.54987e-31)
200           (-2.33782e-09 4.76697e-06 -5.18997e-28) (-9.43999e-11 4.74458e-06 4.55814e-28) (-6.14393e-09 4.7456e-06 -8.44546e-32)
225           (-3.0099e-09 4.74401e-06 -5.1263e-28) (-1.7872e-11 4.72034e-06 4.53239e-28) (-7.35738e-09 4.72436e-06 -1.26478e-31)
250           (-3.04929e-09 4.72231e-06 -5.06128e-28) (4.49991e-11 4.6964e-06 4.50698e-28) (-7.17059e-09 4.70134e-06 -9.28336e-32)
275           (-3.5406e-09 4.70003e-06 -4.99886e-28) (1.16091e-10 4.6728e-06 4.48186e-28) (-7.82778e-09 4.67986e-06 -1.1193e-31)
300           (-3.71231e-09 4.67845e-06 -4.93625e-28) (1.78624e-10 4.64947e-06 4.457e-28) (-7.80543e-09 4.65762e-06 -9.55444e-32)
325           (-4.09909e-09 4.65668e-06 -4.87536e-28) (2.44347e-10 4.62645e-06 4.4324e-28) (-8.17404e-09 4.63622e-06 -1.04017e-31)
350           (-4.31936e-09 4.63534e-06 -4.81484e-28) (3.04222e-10 4.60368e-06 4.40806e-28) (-8.21228e-09 4.61457e-06 -9.58309e-32)
375           (-4.63674e-09 4.61401e-06 -4.75561e-28) (3.64426e-10 4.5812e-06 4.38397e-28) (-8.42837e-09 4.59341e-06 -9.93678e-32)
400           (-4.8635e-09 4.59297e-06 -4.69698e-28) (4.20388e-10 4.55897e-06 4.36014e-28) (-8.48155e-09 4.57222e-06 -9.50223e-32)
425           (-5.12967e-09 4.57203e-06 -4.63942e-28) (4.75466e-10 4.537e-06 4.33655e-28) (-8.61433e-09 4.55137e-06 -9.62637e-32)
450           (-5.34316e-09 4.55132e-06 -4.58257e-28) (5.27207e-10 4.51528e-06 4.3132e-28) (-8.66251e-09 4.5306e-06 -9.44053e-32)
475           (-5.56817e-09 4.53075e-06 -4.52666e-28) (5.77417e-10 4.4938e-06 4.2901e-28) (-8.7479e-09 4.51009e-06 -9.46092e-32)
500           (-5.76006e-09 4.51038e-06 -4.4715e-28) (6.24688e-10 4.47257e-06 4.26724e-28) (-8.78997e-09 4.4897e-06 -9.30665e-32)
525           (-5.95053e-09 4.49017e-06 -4.41719e-28) (6.69962e-10 4.45157e-06 4.2446e-28) (-8.84469e-09 4.46954e-06 -9.27954e-32)
550           (-6.11833e-09 4.47014e-06 -4.36364e-28) (7.12527e-10 4.4308e-06 4.22221e-28) (-8.87628e-09 4.44952e-06 -9.17145e-32)
575           (-6.27944e-09 4.45027e-06 -4.31089e-28) (7.53025e-10 4.41025e-06 4.20004e-28) (-8.91137e-09 4.4297e-06 -9.12541e-32)
600           (-6.42369e-09 4.43059e-06 -4.25889e-28) (7.91245e-10 4.38993e-06 4.17809e-28) (-8.93316e-09 4.41005e-06 -9.0423e-32)
625           (-6.55925e-09 4.41106e-06 -4.20765e-28) (8.27478e-10 4.36982e-06 4.15636e-28) (-8.95446e-09 4.39057e-06 -8.98994e-32)
650           (-6.68153e-09 4.39171e-06 -4.15713e-28) (8.61591e-10 4.34992e-06 4.13485e-28) (-8.96753e-09 4.37125e-06 -8.92043e-32)
675           (-6.79505e-09 4.37252e-06 -4.10735e-28) (8.93778e-10 4.33023e-06 4.11356e-28) (-8.97871e-09 4.35211e-06 -8.8694e-32)
700           (-6.89777e-09 4.35349e-06 -4.05826e-28) (9.24026e-10 4.31075e-06 4.09248e-28) (-8.98411e-09 4.33313e-06 -8.80602e-32)
725           (-6.992e-09 4.33462e-06 -4.00988e-28) (9.52457e-10 4.29146e-06 4.07161e-28) (-8.98772e-09 4.31432e-06 -8.7537e-32)
750           (-7.0773e-09 4.31591e-06 -3.96217e-28) (9.79076e-10 4.27237e-06 4.05095e-28) (-8.98721e-09 4.29567e-06 -8.6974e-32)
775           (-7.15493e-09 4.29736e-06 -3.91514e-28) (1.00399e-09 4.25346e-06 4.03049e-28) (-8.98461e-09 4.27717e-06 -8.64663e-32)
800           (-7.22497e-09 4.27897e-06 -3.86877e-28) (1.02726e-09 4.23475e-06 4.01023e-28) (-8.97906e-09 4.25884e-06 -8.59557e-32)
825           (-7.28821e-09 4.26073e-06 -3.82305e-28) (1.04898e-09 4.21622e-06 3.99016e-28) (-8.97148e-09 4.24066e-06 -8.54608e-32)
850           (-7.34497e-09 4.24264e-06 -3.77796e-28) (1.06922e-09 4.19787e-06 3.97029e-28) (-8.96177e-09 4.22263e-06 -8.49712e-32)
875           (-7.3958e-09 4.22471e-06 -3.7335e-28) (1.088e-09 4.17969e-06 3.95062e-28) (-8.95034e-09 4.20476e-06 -8.44983e-32)
900           (-7.44111e-09 4.20692e-06 -3.68965e-28) (1.1054e-09 4.16169e-06 3.93113e-28) (-8.93712e-09 4.18703e-06 -8.40262e-32)
925           (-7.48124e-09 4.18928e-06 -3.6464e-28) (1.1215e-09 4.14386e-06 3.91183e-28) (-8.92245e-09 4.16945e-06 -8.35775e-32)
950           (-7.51655e-09 4.17178e-06 -3.60375e-28) (1.13636e-09 4.1262e-06 3.89271e-28) (-8.90633e-09 4.15202e-06 -8.31319e-32)
975           (-7.54743e-09 4.15443e-06 -3.56168e-28) (1.15003e-09 4.1087e-06 3.87378e-28) (-8.88895e-09 4.13474e-06 -8.26904e-32)
1000          (-7.57438e-09 4.13722e-06 -3.52018e-28) (1.16262e-09 4.09136e-06 3.85502e-28) (-8.87056e-09 4.11759e-06 -8.22608e-32)
1025          (-7.59751e-09 4.12014e-06 -3.47925e-28) (1.17413e-09 4.07417e-06 3.83645e-28) (-8.8513e-09 4.10058e-06 -8.18045e-32)
1050          (-7.61704e-09 4.1032e-06 -3.43887e-28) (1.18464e-09 4.05714e-06 3.81804e-28) (-8.83089e-09 4.0837e-06 -8.13894e-32)
1075          (-7.63302e-09 4.08639e-06 -3.39903e-28) (1.19416e-09 4.04025e-06 3.79981e-28) (-8.8095e-09 4.06696e-06 -8.09877e-32)
1100          (-7.64587e-09 4.06972e-06 -3.35972e-28) (1.20278e-09 4.02352e-06 3.78175e-28) (-8.7873e-09 4.05036e-06 -8.05883e-32)
1125          (-7.65587e-09 4.05318e-06 -3.32094e-28) (1.21053e-09 4.00693e-06 3.76385e-28) (-8.76437e-09 4.03388e-06 -8.01945e-32)
1150          (-7.66325e-09 4.03677e-06 -3.28268e-28) (1.21749e-09 3.99049e-06 3.74612e-28) (-8.74078e-09 4.01754e-06 -7.98109e-32)
1175          (-7.66819e-09 4.02049e-06 -3.24492e-28) (1.22369e-09 3.97419e-06 3.72855e-28) (-8.71657e-09 4.00133e-06 -7.94282e-32)
1200          (-7.67087e-09 4.00434e-06 -3.20766e-28) (1.22918e-09 3.95803e-06 3.71114e-28) (-8.69186e-09 3.98525e-06 -7.9053e-32)
1225          (-7.67144e-09 3.98832e-06 -3.1709e-28) (1.234e-09 3.94201e-06 3.69389e-28) (-8.66666e-09 3.9693e-06 -7.86828e-32)
1250          (-7.67006e-09 3.97243e-06 -3.13461e-28) (1.23819e-09 3.92613e-06 3.6768e-28) (-8.64102e-09 3.95347e-06 -7.83189e-32)
1275          (-7.66685e-09 3.95666e-06 -3.09881e-28) (1.24182e-09 3.91038e-06 3.65986e-28) (-8.61501e-09 3.93777e-06 -7.79596e-32)
1300          (-7.66197e-09 3.94101e-06 -3.06346e-28) (1.24487e-09 3.89476e-06 3.64307e-28) (-8.58864e-09 3.92219e-06 -7.76042e-32)
1325          (-7.65554e-09 3.92549e-06 -3.02858e-28) (1.24741e-09 3.87928e-06 3.62643e-28) (-8.56196e-09 3.90674e-06 -7.72554e-32)
1350          (-7.64766e-09 3.91009e-06 -2.99415e-28) (1.24945e-09 3.86392e-06 3.60994e-28) (-8.53496e-09 3.8914e-06 -7.69089e-32)
1375          (-7.63844e-09 3.8948e-06 -2.96016e-28) (1.25105e-09 3.84869e-06 3.5936e-28) (-8.5078e-09 3.87619e-06 -7.65688e-32)
1400          (-7.62798e-09 3.87964e-06 -2.92661e-28) (1.2522e-09 3.83359e-06 3.5774e-28) (-8.4804e-09 3.86109e-06 -7.62313e-32)
1425          (-7.61637e-09 3.86459e-06 -2.8935e-28) (1.25297e-09 3.81861e-06 3.56134e-28) (-8.45284e-09 3.84611e-06 -7.58993e-32)
1450          (-7.60369e-09 3.84966e-06 -2.8608e-28) (1.25336e-09 3.80375e-06 3.54542e-28) (-8.42512e-09 3.83124e-06 -7.55712e-32)
1475          (-7.59004e-09 3.83484e-06 -2.82852e-28) (1.2534e-09 3.78901e-06 3.52964e-28) (-8.39727e-09 3.81649e-06 -7.52476e-32)
1500          (-7.57548e-09 3.82014e-06 -2.79665e-28) (1.25311e-09 3.77439e-06 3.514e-28) (-8.36932e-09 3.80186e-06 -7.4927e-32)
1525          (-7.5601e-09 3.80555e-06 -2.76518e-28) (1.25251e-09 3.75989e-06 3.4985e-28) (-8.34128e-09 3.78733e-06 -7.46076e-32)
1550          (-7.54393e-09 3.79106e-06 -2.73411e-28) (1.25163e-09 3.7455e-06 3.48313e-28) (-8.31317e-09 3.77291e-06 -7.42958e-32)
1575          (-7.52706e-09 3.77669e-06 -2.70343e-28) (1.25047e-09 3.73122e-06 3.46789e-28) (-8.28502e-09 3.75861e-06 -7.39829e-32)
1600          (-7.50951e-09 3.76243e-06 -2.67314e-28) (1.24907e-09 3.71706e-06 3.45277e-28) (-8.25683e-09 3.74441e-06 -7.36776e-32)
1625          (-7.49141e-09 3.74827e-06 -2.64322e-28) (1.24743e-09 3.70301e-06 3.43779e-28) (-8.22862e-09 3.73031e-06 -7.33711e-32)
1650          (-7.47269e-09 3.73422e-06 -2.61367e-28) (1.24557e-09 3.68906e-06 3.42294e-28) (-8.20041e-09 3.71633e-06 -7.30706e-32)
1675          (-7.45352e-09 3.72027e-06 -2.5845e-28) (1.24351e-09 3.67523e-06 3.40821e-28) (-8.17221e-09 3.70244e-06 -7.27723e-32)
1700          (-7.43386e-09 3.70642e-06 -2.55568e-28) (1.24127e-09 3.6615e-06 3.3936e-28) (-8.14402e-09 3.68866e-06 -7.24795e-32)
1725          (-7.41381e-09 3.69268e-06 -2.52723e-28) (1.23884e-09 3.64787e-06 3.37912e-28) (-8.11586e-09 3.67499e-06 -7.21871e-32)
1750          (-7.39332e-09 3.67904e-06 -2.4991e-28) (1.23624e-09 3.63435e-06 3.36476e-28) (-8.08772e-09 3.66141e-06 -7.18937e-32)
1775          (-7.37249e-09 3.6655e-06 -2.47134e-28) (1.23353e-09 3.62093e-06 3.35051e-28) (-8.05968e-09 3.64793e-06 -7.16098e-32)
1800          (-7.3514e-09 3.65206e-06 -2.44391e-28) (1.23068e-09 3.60761e-06 3.33639e-28) (-8.03168e-09 3.63455e-06 -7.13255e-32)
1825          (-7.32998e-09 3.63871e-06 -2.41681e-28) (1.22766e-09 3.59439e-06 3.32238e-28) (-8.00373e-09 3.62127e-06 -7.10403e-32)
1850          (-7.30827e-09 3.62547e-06 -2.39005e-28) (1.22456e-09 3.58127e-06 3.30848e-28) (-7.97588e-09 3.60809e-06 -7.07614e-32)
1875          (-7.28642e-09 3.61232e-06 -2.3636e-28) (1.22132e-09 3.56825e-06 3.2947e-28) (-7.9481e-09 3.595e-06 -7.04882e-32)
1900          (-7.26426e-09 3.59926e-06 -2.33748e-28) (1.21802e-09 3.55532e-06 3.28103e-28) (-7.92041e-09 3.582e-06 -7.02121e-32)
1925          (-7.24203e-09 3.58629e-06 -2.31167e-28) (1.21459e-09 3.54248e-06 3.26747e-28) (-7.89282e-09 3.5691e-06 -6.99429e-32)
1950          (-7.21953e-09 3.57342e-06 -2.28617e-28) (1.21112e-09 3.52975e-06 3.25403e-28) (-7.86533e-09 3.55629e-06 -6.96722e-32)
1975          (-7.19701e-09 3.56065e-06 -2.26097e-28) (1.20754e-09 3.5171e-06 3.24069e-28) (-7.83794e-09 3.54357e-06 -6.94073e-32)
2000          (-7.17426e-09 3.54796e-06 -2.23608e-28) (1.20392e-09 3.50454e-06 3.22745e-28) (-7.81066e-09 3.53094e-06 -6.91415e-32)
2025          (-7.15152e-09 3.53536e-06 -2.21148e-28) (1.20022e-09 3.49208e-06 3.21433e-28) (-7.78349e-09 3.5184e-06 -6.88807e-32)
2050          (-7.12859e-09 3.52285e-06 -2.18717e-28) (1.19649e-09 3.47971e-06 3.2013e-28) (-7.75645e-09 3.50595e-06 -6.8623e-32)
2075          (-7.10572e-09 3.51043e-06 -2.16315e-28) (1.19271e-09 3.46742e-06 3.18838e-28) (-7.72953e-09 3.49359e-06 -6.83689e-32)
2100          (-7.08271e-09 3.49809e-06 -2.13941e-28) (1.18888e-09 3.45522e-06 3.17556e-28) (-7.70273e-09 3.48132e-06 -6.81101e-32)
2125          (-7.0597e-09 3.48584e-06 -2.11595e-28) (1.18502e-09 3.44311e-06 3.16285e-28) (-7.67606e-09 3.46912e-06 -6.78555e-32)
2150          (-7.03665e-09 3.47368e-06 -2.09277e-28) (1.18112e-09 3.43108e-06 3.15023e-28) (-7.64952e-09 3.45702e-06 -6.76089e-32)
2175          (-7.01357e-09 3.4616e-06 -2.06985e-28) (1.17719e-09 3.41914e-06 3.13771e-28) (-7.6231e-09 3.445e-06 -6.73585e-32)
2200          (-6.99049e-09 3.4496e-06 -2.0472e-28) (1.17324e-09 3.40728e-06 3.12529e-28) (-7.59681e-09 3.43306e-06 -6.71118e-32)
2225          (-6.96741e-09 3.43769e-06 -2.02482e-28) (1.16926e-09 3.3955e-06 3.11296e-28) (-7.57065e-09 3.4212e-06 -6.68659e-32)
2250          (-6.94434e-09 3.42586e-06 -2.00269e-28) (1.16527e-09 3.38381e-06 3.10073e-28) (-7.54464e-09 3.40943e-06 -6.66191e-32)
2275          (-6.92129e-09 3.41411e-06 -1.98082e-28) (1.16126e-09 3.37219e-06 3.0886e-28) (-7.51876e-09 3.39773e-06 -6.63813e-32)
2300          (-6.89826e-09 3.40244e-06 -1.9592e-28) (1.15723e-09 3.36066e-06 3.07656e-28) (-7.49301e-09 3.38612e-06 -6.61408e-32)
2325          (-6.87528e-09 3.39085e-06 -1.93782e-28) (1.1532e-09 3.3492e-06 3.06461e-28) (-7.46741e-09 3.37458e-06 -6.59028e-32)
2350          (-6.85233e-09 3.37933e-06 -1.91669e-28) (1.14916e-09 3.33783e-06 3.05274e-28) (-7.44195e-09 3.36312e-06 -6.56658e-32)
2375          (-6.82944e-09 3.3679e-06 -1.89581e-28) (1.14509e-09 3.32653e-06 3.04097e-28) (-7.41661e-09 3.35174e-06 -6.54259e-32)
2400          (-6.80655e-09 3.35654e-06 -1.87516e-28) (1.14102e-09 3.3153e-06 3.02929e-28) (-7.39141e-09 3.34044e-06 -6.5193e-32)
2425          (-6.78375e-09 3.34525e-06 -1.85474e-28) (1.13697e-09 3.30416e-06 3.0177e-28) (-7.36638e-09 3.32921e-06 -6.4967e-32)
2450          (-6.76105e-09 3.33405e-06 -1.83455e-28) (1.13291e-09 3.29308e-06 3.00619e-28) (-7.34147e-09 3.31806e-06 -6.47323e-32)
2475          (-6.73836e-09 3.32291e-06 -1.8146e-28) (1.12886e-09 3.28209e-06 2.99477e-28) (-7.31672e-09 3.30698e-06 -6.45064e-32)
2500          (-6.71582e-09 3.31185e-06 -1.79486e-28) (1.12483e-09 3.27116e-06 2.98344e-28) (-7.29212e-09 3.29597e-06 -6.42819e-32)
2525          (-6.69332e-09 3.30087e-06 -1.77536e-28) (1.12079e-09 3.26031e-06 2.97219e-28) (-7.26764e-09 3.28504e-06 -6.40582e-32)
2550          (-6.67083e-09 3.28995e-06 -1.75605e-28) (1.11673e-09 3.24953e-06 2.96102e-28) (-7.24331e-09 3.27417e-06 -6.3833e-32)
2575          (-6.64848e-09 3.27911e-06 -1.73699e-28) (1.11271e-09 3.23882e-06 2.94993e-28) (-7.21912e-09 3.26338e-06 -6.36142e-32)
2600          (-6.62627e-09 3.26834e-06 -1.71812e-28) (1.1087e-09 3.22818e-06 2.93893e-28) (-7.19508e-09 3.25266e-06 -6.3394e-32)
2625          (-6.60414e-09 3.25764e-06 -1.69945e-28) (1.10464e-09 3.21761e-06 2.928e-28) (-7.17113e-09 3.24202e-06 -6.317e-32)
2650          (-6.58197e-09 3.24701e-06 -1.681e-28) (1.10065e-09 3.20711e-06 2.91716e-28) (-7.14735e-09 3.23143e-06 -6.29568e-32)
2675          (-6.56005e-09 3.23644e-06 -1.66275e-28) (1.09667e-09 3.19668e-06 2.90639e-28) (-7.12375e-09 3.22092e-06 -6.2741e-32)
2700          (-6.53816e-09 3.22595e-06 -1.64471e-28) (1.09272e-09 3.18632e-06 2.89571e-28) (-7.10028e-09 3.21048e-06 -6.25299e-32)
2725          (-6.51644e-09 3.21552e-06 -1.62686e-28) (1.08878e-09 3.17602e-06 2.8851e-28) (-7.07696e-09 3.2001e-06 -6.23168e-32)
2750          (-6.49479e-09 3.20516e-06 -1.60921e-28) (1.08486e-09 3.16579e-06 2.87456e-28) (-7.05377e-09 3.18979e-06 -6.21073e-32)
2775          (-6.47329e-09 3.19487e-06 -1.59174e-28) (1.08097e-09 3.15563e-06 2.8641e-28) (-7.03074e-09 3.17955e-06 -6.18958e-32)
2800          (-6.45182e-09 3.18464e-06 -1.57446e-28) (1.07706e-09 3.14553e-06 2.85372e-28) (-7.00782e-09 3.16937e-06 -6.16889e-32)
2825          (-6.43049e-09 3.17448e-06 -1.55739e-28) (1.07318e-09 3.13549e-06 2.84341e-28) (-6.98505e-09 3.15925e-06 -6.14831e-32)
2850          (-6.40928e-09 3.16438e-06 -1.54048e-28) (1.06933e-09 3.12552e-06 2.83317e-28) (-6.96242e-09 3.1492e-06 -6.12728e-32)
2875          (-6.38819e-09 3.15434e-06 -1.52377e-28) (1.06548e-09 3.11561e-06 2.82301e-28) (-6.93993e-09 3.13922e-06 -6.10735e-32)
2900          (-6.36717e-09 3.14437e-06 -1.50723e-28) (1.06167e-09 3.10577e-06 2.81291e-28) (-6.91755e-09 3.12929e-06 -6.08702e-32)
2925          (-6.34629e-09 3.13446e-06 -1.49087e-28) (1.05787e-09 3.09598e-06 2.80289e-28) (-6.89533e-09 3.11943e-06 -6.06698e-32)
2950          (-6.32551e-09 3.12461e-06 -1.47469e-28) (1.05409e-09 3.08626e-06 2.79294e-28) (-6.87324e-09 3.10963e-06 -6.04694e-32)
2975          (-6.30484e-09 3.11482e-06 -1.45868e-28) (1.05033e-09 3.0766e-06 2.78305e-28) (-6.85128e-09 3.09989e-06 -6.02709e-32)
3000          (-6.28428e-09 3.1051e-06 -1.44284e-28) (1.04658e-09 3.06699e-06 2.77324e-28) (-6.82945e-09 3.09021e-06 -6.00734e-32)
3025          (-6.26384e-09 3.09543e-06 -1.42716e-28) (1.04286e-09 3.05745e-06 2.76349e-28) (-6.80776e-09 3.08059e-06 -5.98779e-32)
3050          (-6.24351e-09 3.08583e-06 -1.41166e-28) (1.03916e-09 3.04797e-06 2.75381e-28) (-6.7862e-09 3.07103e-06 -5.96835e-32)
3075          (-6.22328e-09 3.07628e-06 -1.39631e-28) (1.03548e-09 3.03854e-06 2.7442e-28) (-6.76477e-09 3.06153e-06 -5.94896e-32)
3100          (-6.20318e-09 3.06679e-06 -1.38113e-28) (1.03182e-09 3.02917e-06 2.73465e-28) (-6.74346e-09 3.05209e-06 -5.92972e-32)
3125          (-6.18319e-09 3.05736e-06 -1.36611e-28) (1.02818e-09 3.01986e-06 2.72517e-28) (-6.72229e-09 3.0427e-06 -5.91061e-32)
3150          (-6.16331e-09 3.04799e-06 -1.35125e-28) (1.02457e-09 3.01061e-06 2.71575e-28) (-6.70125e-09 3.03338e-06 -5.89167e-32)
3175          (-6.14354e-09 3.03867e-06 -1.33654e-28) (1.02097e-09 3.00141e-06 2.7064e-28) (-6.68033e-09 3.02411e-06 -5.87282e-32)
3200          (-6.12388e-09 3.02941e-06 -1.32199e-28) (1.0174e-09 2.99227e-06 2.69711e-28) (-6.65954e-09 3.01489e-06 -5.85406e-32)
3225          (-6.10434e-09 3.02021e-06 -1.30758e-28) (1.01384e-09 2.98319e-06 2.68788e-28) (-6.63887e-09 3.00573e-06 -5.83543e-32)
3250          (-6.0849e-09 3.01106e-06 -1.29333e-28) (1.01031e-09 2.97416e-06 2.67872e-28) (-6.61833e-09 2.99663e-06 -5.81694e-32)
3275          (-6.06558e-09 3.00197e-06 -1.27922e-28) (1.0068e-09 2.96518e-06 2.66961e-28) (-6.59791e-09 2.98758e-06 -5.79854e-32)
3300          (-6.04636e-09 2.99293e-06 -1.26526e-28) (1.00331e-09 2.95626e-06 2.66057e-28) (-6.57761e-09 2.97858e-06 -5.78025e-32)
3325          (-6.02726e-09 2.98394e-06 -1.25145e-28) (9.99843e-10 2.94739e-06 2.65159e-28) (-6.55744e-09 2.96964e-06 -5.76212e-32)
3350          (-6.00827e-09 2.97501e-06 -1.23777e-28) (9.96397e-10 2.93857e-06 2.64266e-28) (-6.53738e-09 2.96075e-06 -5.74405e-32)
3375          (-5.98939e-09 2.96613e-06 -1.22424e-28) (9.9297e-10 2.9298e-06 2.6338e-28) (-6.51745e-09 2.95192e-06 -5.7261e-32)
3400          (-5.97062e-09 2.95731e-06 -1.21085e-28) (9.89562e-10 2.92109e-06 2.62499e-28) (-6.49763e-09 2.94313e-06 -5.70809e-32)
3425          (-5.95196e-09 2.94853e-06 -1.19759e-28) (9.86182e-10 2.91243e-06 2.61625e-28) (-6.47794e-09 2.9344e-06 -5.69054e-32)
3450          (-5.93341e-09 2.93981e-06 -1.18446e-28) (9.82821e-10 2.90382e-06 2.60755e-28) (-6.45835e-09 2.92572e-06 -5.67284e-32)
3475          (-5.91496e-09 2.93114e-06 -1.17147e-28) (9.79484e-10 2.89526e-06 2.59892e-28) (-6.43889e-09 2.91709e-06 -5.65534e-32)
3500          (-5.89662e-09 2.92252e-06 -1.15862e-28) (9.76169e-10 2.88675e-06 2.59034e-28) (-6.41954e-09 2.90851e-06 -5.63798e-32)
3525          (-5.87839e-09 2.91395e-06 -1.14589e-28) (9.72875e-10 2.87829e-06 2.58182e-28) (-6.4003e-09 2.89998e-06 -5.62066e-32)
3550          (-5.86026e-09 2.90543e-06 -1.13329e-28) (9.69603e-10 2.86988e-06 2.57335e-28) (-6.38118e-09 2.8915e-06 -5.60348e-32)
3575          (-5.84224e-09 2.89695e-06 -1.12082e-28) (9.66351e-10 2.86151e-06 2.56494e-28) (-6.36217e-09 2.88307e-06 -5.58639e-32)
3600          (-5.82432e-09 2.88853e-06 -1.10847e-28) (9.63122e-10 2.8532e-06 2.55658e-28) (-6.34327e-09 2.87469e-06 -5.56938e-32)
3625          (-5.80651e-09 2.88016e-06 -1.09625e-28) (9.59922e-10 2.84493e-06 2.54828e-28) (-6.32448e-09 2.86636e-06 -5.55237e-32)
3650          (-5.78881e-09 2.87183e-06 -1.08414e-28) (9.56729e-10 2.83671e-06 2.54002e-28) (-6.3058e-09 2.85807e-06 -5.53556e-32)
3675          (-5.7712e-09 2.86355e-06 -1.07216e-28) (9.53564e-10 2.82854e-06 2.53183e-28) (-6.28723e-09 2.84983e-06 -5.51906e-32)
3700          (-5.7537e-09 2.85532e-06 -1.0603e-28) (9.50427e-10 2.82041e-06 2.52368e-28) (-6.26876e-09 2.84164e-06 -5.50228e-32)
3725          (-5.73631e-09 2.84713e-06 -1.04856e-28) (9.47306e-10 2.81233e-06 2.51558e-28) (-6.25041e-09 2.83349e-06 -5.48581e-32)
3750          (-5.71901e-09 2.839e-06 -1.03693e-28) (9.44206e-10 2.8043e-06 2.50754e-28) (-6.23216e-09 2.8254e-06 -5.46948e-32)
3775          (-5.70181e-09 2.8309e-06 -1.02542e-28) (9.41128e-10 2.79631e-06 2.49954e-28) (-6.21401e-09 2.81734e-06 -5.45312e-32)
3800          (-5.68472e-09 2.82286e-06 -1.01402e-28) (9.38063e-10 2.78837e-06 2.4916e-28) (-6.19597e-09 2.80933e-06 -5.43681e-32)
3825          (-5.66771e-09 2.81485e-06 -1.00273e-28) (9.35021e-10 2.78047e-06 2.48371e-28) (-6.17803e-09 2.80137e-06 -5.42069e-32)
3850          (-5.65081e-09 2.8069e-06 -9.91557e-29) (9.32002e-10 2.77261e-06 2.47586e-28) (-6.1602e-09 2.79345e-06 -5.40484e-32)
3875          (-5.634e-09 2.79899e-06 -9.8049e-29) (9.28996e-10 2.7648e-06 2.46806e-28) (-6.14246e-09 2.78558e-06 -5.38878e-32)
3900          (-5.61729e-09 2.79112e-06 -9.69532e-29) (9.26016e-10 2.75703e-06 2.46032e-28) (-6.12483e-09 2.77775e-06 -5.37307e-32)
3925          (-5.60068e-09 2.78329e-06 -9.5868e-29) (9.23056e-10 2.74931e-06 2.45262e-28) (-6.1073e-09 2.76996e-06 -5.35733e-32)
3950          (-5.58417e-09 2.77551e-06 -9.47934e-29) (9.20111e-10 2.74163e-06 2.44496e-28) (-6.08986e-09 2.76222e-06 -5.34154e-32)
3975          (-5.56774e-09 2.76777e-06 -9.37292e-29) (9.17178e-10 2.73399e-06 2.43736e-28) (-6.07253e-09 2.75452e-06 -5.32629e-32)
4000          (-5.5514e-09 2.76008e-06 -9.26753e-29) (9.14275e-10 2.72639e-06 2.4298e-28) (-6.05529e-09 2.74686e-06 -5.31048e-32)
4025          (-5.53518e-09 2.75242e-06 -9.16316e-29) (9.11388e-10 2.71884e-06 2.42228e-28) (-6.03815e-09 2.73924e-06 -5.29521e-32)
4050          (-5.51903e-09 2.74481e-06 -9.0598e-29) (9.0852e-10 2.71132e-06 2.41482e-28) (-6.02111e-09 2.73166e-06 -5.27981e-32)
4075          (-5.50298e-09 2.73724e-06 -8.95743e-29) (9.05658e-10 2.70385e-06 2.4074e-28) (-6.00416e-09 2.72413e-06 -5.26479e-32)
4100          (-5.48701e-09 2.72971e-06 -8.85604e-29) (9.02828e-10 2.69641e-06 2.40002e-28) (-5.9873e-09 2.71664e-06 -5.24951e-32)
4125          (-5.47116e-09 2.72222e-06 -8.75563e-29) (9.00014e-10 2.68902e-06 2.39269e-28) (-5.97054e-09 2.70919e-06 -5.23455e-32)
4150          (-5.45537e-09 2.71477e-06 -8.65617e-29) (8.97205e-10 2.68167e-06 2.3854e-28) (-5.95387e-09 2.70177e-06 -5.21953e-32)
4175          (-5.43967e-09 2.70737e-06 -8.55766e-29) (8.94428e-10 2.67436e-06 2.37815e-28) (-5.93729e-09 2.6944e-06 -5.20457e-32)
4200          (-5.42408e-09 2.7e-06 -8.46009e-29) (8.91655e-10 2.66708e-06 2.37095e-28) (-5.92081e-09 2.68707e-06 -5.19e-32)
4225          (-5.40855e-09 2.69267e-06 -8.36345e-29) (8.88905e-10 2.65985e-06 2.36379e-28) (-5.90441e-09 2.67978e-06 -5.17531e-32)
4250          (-5.39313e-09 2.68538e-06 -8.26772e-29) (8.8617e-10 2.65265e-06 2.35668e-28) (-5.88811e-09 2.67252e-06 -5.16063e-32)
4275          (-5.3778e-09 2.67813e-06 -8.1729e-29) (8.83457e-10 2.64549e-06 2.3496e-28) (-5.87189e-09 2.66531e-06 -5.14586e-32)
4300          (-5.36255e-09 2.67092e-06 -8.07897e-29) (8.80763e-10 2.63837e-06 2.34257e-28) (-5.85577e-09 2.65813e-06 -5.13142e-32)
4325          (-5.34739e-09 2.66374e-06 -7.98593e-29) (8.78077e-10 2.63129e-06 2.33558e-28) (-5.83973e-09 2.65099e-06 -5.11734e-32)
4350          (-5.3323e-09 2.65661e-06 -7.89376e-29) (8.75418e-10 2.62425e-06 2.32863e-28) (-5.82377e-09 2.64389e-06 -5.10289e-32)
4375          (-5.31731e-09 2.64951e-06 -7.80245e-29) (8.72762e-10 2.61724e-06 2.32172e-28) (-5.8079e-09 2.63683e-06 -5.08867e-32)
4400          (-5.3024e-09 2.64245e-06 -7.712e-29) (8.70136e-10 2.61027e-06 2.31485e-28) (-5.79212e-09 2.6298e-06 -5.07434e-32)
4425          (-5.28757e-09 2.63542e-06 -7.62239e-29) (8.67515e-10 2.60334e-06 2.30802e-28) (-5.77642e-09 2.62281e-06 -5.06058e-32)
4450          (-5.27281e-09 2.62844e-06 -7.53362e-29) (8.64921e-10 2.59644e-06 2.30123e-28) (-5.76081e-09 2.61585e-06 -5.04629e-32)
4475          (-5.25816e-09 2.62149e-06 -7.44568e-29) (8.62332e-10 2.58958e-06 2.29448e-28) (-5.74528e-09 2.60894e-06 -5.03239e-32)
4500          (-5.24356e-09 2.61457e-06 -7.35855e-29) (8.5977e-10 2.58275e-06 2.28777e-28) (-5.72983e-09 2.60206e-06 -5.0185e-32)
4525          (-5.22906e-09 2.60769e-06 -7.27223e-29) (8.57213e-10 2.57596e-06 2.2811e-28) (-5.71446e-09 2.59521e-06 -5.00477e-32)
4550          (-5.21462e-09 2.60085e-06 -7.1867e-29) (8.54674e-10 2.5692e-06 2.27447e-28) (-5.69918e-09 2.5884e-06 -4.99111e-32)
4575          (-5.20027e-09 2.59404e-06 -7.10196e-29) (8.52146e-10 2.56248e-06 2.26787e-28) (-5.68398e-09 2.58163e-06 -4.97799e-32)
4600          (-5.186e-09 2.58727e-06 -7.01801e-29) (8.49641e-10 2.55579e-06 2.26131e-28) (-5.66885e-09 2.57488e-06 -4.96373e-32)
4625          (-5.17181e-09 2.58053e-06 -6.93483e-29) (8.47145e-10 2.54914e-06 2.25479e-28) (-5.65381e-09 2.56818e-06 -4.95051e-32)
4650          (-5.15769e-09 2.57383e-06 -6.85241e-29) (8.4467e-10 2.54252e-06 2.24831e-28) (-5.63884e-09 2.56151e-06 -4.9369e-32)
4675          (-5.14364e-09 2.56716e-06 -6.77074e-29) (8.42202e-10 2.53594e-06 2.24186e-28) (-5.62396e-09 2.55487e-06 -4.92382e-32)
4700          (-5.12968e-09 2.56052e-06 -6.68982e-29) (8.39752e-10 2.52939e-06 2.23545e-28) (-5.60914e-09 2.54827e-06 -4.91043e-32)
4725          (-5.11578e-09 2.55392e-06 -6.60964e-29) (8.37318e-10 2.52287e-06 2.22908e-28) (-5.59441e-09 2.5417e-06 -4.89754e-32)
4750          (-5.10198e-09 2.54735e-06 -6.53019e-29) (8.34899e-10 2.51638e-06 2.22274e-28) (-5.57974e-09 2.53516e-06 -4.88425e-32)
4775          (-5.08823e-09 2.54081e-06 -6.45146e-29) (8.3249e-10 2.50993e-06 2.21644e-28) (-5.56517e-09 2.52865e-06 -4.8712e-32)
4800          (-5.07457e-09 2.53431e-06 -6.37344e-29) (8.30092e-10 2.50351e-06 2.21017e-28) (-5.55066e-09 2.52218e-06 -4.85812e-32)
4825          (-5.06097e-09 2.52784e-06 -6.29613e-29) (8.27708e-10 2.49712e-06 2.20394e-28) (-5.53622e-09 2.51574e-06 -4.84519e-32)
4850          (-5.04745e-09 2.5214e-06 -6.21952e-29) (8.25337e-10 2.49076e-06 2.19774e-28) (-5.52186e-09 2.50934e-06 -4.83249e-32)
4875          (-5.034e-09 2.51499e-06 -6.14357e-29) (8.22982e-10 2.48444e-06 2.19158e-28) (-5.50757e-09 2.50296e-06 -4.81949e-32)
4900          (-5.0206e-09 2.50862e-06 -6.06837e-29) (8.20634e-10 2.47815e-06 2.18544e-28) (-5.49336e-09 2.49662e-06 -4.807e-32)
4925          (-5.00732e-09 2.50228e-06 -5.99381e-29) (8.18302e-10 2.47188e-06 2.17935e-28) (-5.47922e-09 2.49031e-06 -4.79438e-32)
4950          (-4.99406e-09 2.49597e-06 -5.91991e-29) (8.15982e-10 2.46565e-06 2.17329e-28) (-5.46514e-09 2.48402e-06 -4.78169e-32)
4975          (-4.98091e-09 2.48968e-06 -5.84666e-29) (8.13677e-10 2.45945e-06 2.16726e-28) (-5.45114e-09 2.47777e-06 -4.76904e-32)
5000          (-4.96777e-09 2.48344e-06 -5.77407e-29) (8.11386e-10 2.45328e-06 2.16126e-28) (-5.43721e-09 2.47156e-06 -4.75691e-32)
5025          (-4.95475e-09 2.47722e-06 -5.70219e-29) (8.091e-10 2.44714e-06 2.1553e-28) (-5.42334e-09 2.46537e-06 -4.74443e-32)
5050          (-4.9418e-09 2.47103e-06 -5.63087e-29) (8.06832e-10 2.44103e-06 2.14937e-28) (-5.40955e-09 2.45921e-06 -4.73206e-32)
5075          (-4.92887e-09 2.46487e-06 -5.56023e-29) (8.04573e-10 2.43495e-06 2.14347e-28) (-5.39582e-09 2.45308e-06 -4.71991e-32)
5100          (-4.91605e-09 2.45874e-06 -5.4902e-29) (8.02325e-10 2.4289e-06 2.1376e-28) (-5.38216e-09 2.44698e-06 -4.70738e-32)
5125          (-4.90326e-09 2.45264e-06 -5.4208e-29) (8.00093e-10 2.42288e-06 2.13176e-28) (-5.36857e-09 2.44091e-06 -4.69527e-32)
5150          (-4.89057e-09 2.44657e-06 -5.35205e-29) (7.97869e-10 2.41689e-06 2.12596e-28) (-5.35505e-09 2.43487e-06 -4.68337e-32)
5175          (-4.87794e-09 2.44053e-06 -5.28383e-29) (7.95667e-10 2.41092e-06 2.12019e-28) (-5.3416e-09 2.42886e-06 -4.67179e-32)
5200          (-4.86535e-09 2.43452e-06 -5.21627e-29) (7.93469e-10 2.40499e-06 2.11445e-28) (-5.3282e-09 2.42288e-06 -4.65986e-32)
5225          (-4.85286e-09 2.42854e-06 -5.1493e-29) (7.91281e-10 2.39908e-06 2.10873e-28) (-5.31487e-09 2.41693e-06 -4.64751e-32)
5250          (-4.84039e-09 2.42259e-06 -5.08291e-29) (7.89111e-10 2.3932e-06 2.10305e-28) (-5.30161e-09 2.411e-06 -4.63568e-32)
5275          (-4.82802e-09 2.41666e-06 -5.01714e-29) (7.86946e-10 2.38735e-06 2.0974e-28) (-5.28842e-09 2.4051e-06 -4.62418e-32)
5300          (-4.81569e-09 2.41076e-06 -4.95194e-29) (7.84802e-10 2.38153e-06 2.09178e-28) (-5.27528e-09 2.39924e-06 -4.61275e-32)
5325          (-4.80347e-09 2.40489e-06 -4.88727e-29) (7.82662e-10 2.37574e-06 2.08619e-28) (-5.26221e-09 2.39339e-06 -4.60078e-32)
5350          (-4.79127e-09 2.39905e-06 -4.82315e-29) (7.80545e-10 2.36997e-06 2.08063e-28) (-5.24921e-09 2.38758e-06 -4.58971e-32)
5375          (-4.77912e-09 2.39324e-06 -4.75963e-29) (7.78428e-10 2.36423e-06 2.0751e-28) (-5.23624e-09 2.3818e-06 -4.57764e-32)
5400          (-4.76705e-09 2.38745e-06 -4.69666e-29) (7.76324e-10 2.35851e-06 2.06959e-28) (-5.22337e-09 2.37604e-06 -4.56626e-32)
5425          (-4.75501e-09 2.38169e-06 -4.63431e-29) (7.74239e-10 2.35283e-06 2.06412e-28) (-5.21053e-09 2.37031e-06 -4.55526e-32)
5450          (-4.74311e-09 2.37596e-06 -4.57241e-29) (7.72156e-10 2.34717e-06 2.05867e-28) (-5.19778e-09 2.3646e-06 -4.54367e-32)
5475          (-4.73119e-09 2.37025e-06 -4.51108e-29) (7.7009e-10 2.34153e-06 2.05325e-28) (-5.18508e-09 2.35892e-06 -4.53241e-32)
5500          (-4.71935e-09 2.36458e-06 -4.45028e-29) (7.68031e-10 2.33593e-06 2.04786e-28) (-5.17243e-09 2.35327e-06 -4.52118e-32)
5525          (-4.70758e-09 2.35892e-06 -4.38999e-29) (7.65992e-10 2.33035e-06 2.0425e-28) (-5.15985e-09 2.34765e-06 -4.51042e-32)
5550          (-4.69583e-09 2.3533e-06 -4.3303e-29) (7.63964e-10 2.32479e-06 2.03717e-28) (-5.14731e-09 2.34205e-06 -4.49927e-32)
5575          (-4.68421e-09 2.34769e-06 -4.27101e-29) (7.61942e-10 2.31926e-06 2.03186e-28) (-5.13485e-09 2.33647e-06 -4.48809e-32)
5600          (-4.67257e-09 2.34212e-06 -4.21237e-29) (7.59932e-10 2.31375e-06 2.02658e-28) (-5.12243e-09 2.33092e-06 -4.47723e-32)
5625          (-4.66103e-09 2.33657e-06 -4.15411e-29) (7.57932e-10 2.30827e-06 2.02133e-28) (-5.11007e-09 2.3254e-06 -4.46632e-32)
5650          (-4.64954e-09 2.33105e-06 -4.09648e-29) (7.5595e-10 2.30282e-06 2.0161e-28) (-5.09778e-09 2.3199e-06 -4.45547e-32)
5675          (-4.63809e-09 2.32555e-06 -4.03924e-29) (7.53969e-10 2.29739e-06 2.0109e-28) (-5.08553e-09 2.31443e-06 -4.44482e-32)
5700          (-4.62673e-09 2.32007e-06 -3.98253e-29) (7.51997e-10 2.29199e-06 2.00573e-28) (-5.07335e-09 2.30898e-06 -4.43381e-32)